 Entering Gaussian System, Link 0=g16
 Input=molecule_8_1_ECD.com
 Output=molecule_8_1_ECD.log
 Initial command:
 /share/apps/g16/A03/l1.exe "/tmp/954374.tmpdir/scr/Gau-64655.inp" -scrdir="/tmp/954374.tmpdir/scr/"
 Entering Link 1 = /share/apps/g16/A03/l1.exe PID=     64656.
  
 Copyright (c) 1988,1990,1992,1993,1995,1998,2003,2009,2016,
            Gaussian, Inc.  All Rights Reserved.
  
 This is part of the Gaussian(R) 16 program.  It is based on
 the Gaussian(R) 09 system (copyright 2009, Gaussian, Inc.),
 the Gaussian(R) 03 system (copyright 2003, Gaussian, Inc.),
 the Gaussian(R) 98 system (copyright 1998, Gaussian, Inc.),
 the Gaussian(R) 94 system (copyright 1995, Gaussian, Inc.),
 the Gaussian 92(TM) system (copyright 1992, Gaussian, Inc.),
 the Gaussian 90(TM) system (copyright 1990, Gaussian, Inc.),
 the Gaussian 88(TM) system (copyright 1988, Gaussian, Inc.),
 the Gaussian 86(TM) system (copyright 1986, Carnegie Mellon
 University), and the Gaussian 82(TM) system (copyright 1983,
 Carnegie Mellon University). Gaussian is a federally registered
 trademark of Gaussian, Inc.
  
 This software contains proprietary and confidential information,
 including trade secrets, belonging to Gaussian, Inc.
  
 This software is provided under written license and may be
 used, copied, transmitted, or stored only in accord with that
 written license.
  
 The following legend is applicable only to US Government
 contracts under FAR:
  
                    RESTRICTED RIGHTS LEGEND
  
 Use, reproduction and disclosure by the US Government is
 subject to restrictions as set forth in subparagraphs (a)
 and (c) of the Commercial Computer Software - Restricted
 Rights clause in FAR 52.227-19.
  
 Gaussian, Inc.
 340 Quinnipiac St., Bldg. 40, Wallingford CT 06492
  
  
 ---------------------------------------------------------------
 Warning -- This program may not be used in any manner that
 competes with the business of Gaussian, Inc. or will provide
 assistance to any competitor of Gaussian, Inc.  The licensee
 of this program is prohibited from giving any competitor of
 Gaussian, Inc. access to this program.  By using this program,
 the user acknowledges that Gaussian, Inc. is engaged in the
 business of creating and licensing software in the field of
 computational chemistry and represents and warrants to the
 licensee that it is not a competitor of Gaussian, Inc. and that
 it will not use this program in any manner prohibited above.
 ---------------------------------------------------------------
  

 Cite this work as:
 Gaussian 16, Revision A.03,
 M. J. Frisch, G. W. Trucks, H. B. Schlegel, G. E. Scuseria, 
 M. A. Robb, J. R. Cheeseman, G. Scalmani, V. Barone, 
 G. A. Petersson, H. Nakatsuji, X. Li, M. Caricato, A. V. Marenich, 
 J. Bloino, B. G. Janesko, R. Gomperts, B. Mennucci, H. P. Hratchian, 
 J. V. Ortiz, A. F. Izmaylov, J. L. Sonnenberg, D. Williams-Young, 
 F. Ding, F. Lipparini, F. Egidi, J. Goings, B. Peng, A. Petrone, 
 T. Henderson, D. Ranasinghe, V. G. Zakrzewski, J. Gao, N. Rega, 
 G. Zheng, W. Liang, M. Hada, M. Ehara, K. Toyota, R. Fukuda, 
 J. Hasegawa, M. Ishida, T. Nakajima, Y. Honda, O. Kitao, H. Nakai, 
 T. Vreven, K. Throssell, J. A. Montgomery, Jr., J. E. Peralta, 
 F. Ogliaro, M. J. Bearpark, J. J. Heyd, E. N. Brothers, K. N. Kudin, 
 V. N. Staroverov, T. A. Keith, R. Kobayashi, J. Normand, 
 K. Raghavachari, A. P. Rendell, J. C. Burant, S. S. Iyengar, 
 J. Tomasi, M. Cossi, J. M. Millam, M. Klene, C. Adamo, R. Cammi, 
 J. W. Ochterski, R. L. Martin, K. Morokuma, O. Farkas, 
 J. B. Foresman, and D. J. Fox, Gaussian, Inc., Wallingford CT, 2016.
 
 ******************************************
 Gaussian 16:  ES64L-G16RevA.03 25-Dec-2016
                28-Dec-2023 
 ******************************************
 %nprocs=32
 Will use up to   32 processors via shared memory.
 %chk=molecule_8_1_ECD.chk
 %mem=10GB
 --------------------------------------------
 # td=(nstates=20,root=20) cam-b3lyp/6-31g(d)
 --------------------------------------------
 1/38=1,172=1/1;
 2/12=2,17=6,18=5,40=1/2;
 3/5=1,6=6,7=1,11=9,25=1,30=1,74=-40/1,2,3,8;
 4//1;
 5/5=2,38=5/2;
 8/6=1,10=2,107=20,108=20/1;
 9/8=20,41=20,42=1,70=2/14;
 6/7=2,8=2,9=2,10=2/1;
 99/5=1,9=1/99;
 -----
 Title
 -----
 Symbolic Z-matrix:
 Charge =  0 Multiplicity = 1
 O                    -0.04891   2.3379   -2.11511 
 C                     0.19182   2.79793  -0.86877 
 C                    -0.80138   2.29569   0.1862 
 C                    -0.05226   1.96866   1.50333 
 C                     1.00765   0.93571   1.2859 
 C                     2.26385   0.87402   1.8402 
 N                     2.95301  -0.20166   1.32061 
 C                     2.15147  -0.83419   0.39925 
 C                     2.42613  -1.94129  -0.4087 
 O                     3.65997  -2.52173  -0.29173 
 C                     1.42437  -2.36179  -1.27589 
 C                     0.18     -1.70701  -1.31385 
 C                    -0.12261  -0.59619  -0.51745 
 C                    -1.45834   0.06531  -0.55752 
 C                    -2.67204  -0.76632  -0.96852 
 C                    -3.39332  -1.52261   0.18482 
 C                    -4.00111  -0.56694   1.22132 
 C                    -2.51907  -2.58764   0.86341 
 N                    -1.74714   1.28289  -0.25167 
 C                     0.91209  -0.14997   0.35176 
 O                     1.08033   3.5865   -0.62537 
 H                     0.62768   2.75645  -2.68086 
 H                    -1.40902   3.18898   0.39507 
 H                    -0.80921   1.63451   2.22476 
 H                     0.38831   2.89028   1.89667 
 H                     2.73005   1.53019   2.5623 
 H                     3.90106  -0.46566   1.5371 
 H                     3.71493  -3.26966  -0.90697 
 H                     1.60264  -3.21258  -1.93064 
 H                    -0.55659  -2.08795  -2.01099 
 H                    -3.3871   -0.06948  -1.41548 
 H                    -2.40796  -1.49705  -1.73981 
 H                    -4.22821  -2.04866  -0.3025 
 H                    -3.22442  -0.01559   1.76157 
 H                    -4.6548    0.17354   0.74749 
 H                    -4.59285  -1.12604   1.95661 
 H                    -3.11     -3.16234   1.58706 
 H                    -1.68006  -2.13576   1.40441 
 H                    -2.10017  -3.29325   0.13651 
 
                          Input orientation:                          
 ---------------------------------------------------------------------
 Center     Atomic      Atomic             Coordinates (Angstroms)
 Number     Number       Type             X           Y           Z
 ---------------------------------------------------------------------
      1          8           0       -0.048912    2.337898   -2.115115
      2          6           0        0.191824    2.797932   -0.868771
      3          6           0       -0.801379    2.295686    0.186200
      4          6           0       -0.052264    1.968661    1.503334
      5          6           0        1.007650    0.935707    1.285896
      6          6           0        2.263849    0.874017    1.840201
      7          7           0        2.953006   -0.201661    1.320610
      8          6           0        2.151474   -0.834194    0.399249
      9          6           0        2.426134   -1.941291   -0.408702
     10          8           0        3.659969   -2.521730   -0.291734
     11          6           0        1.424370   -2.361794   -1.275892
     12          6           0        0.179997   -1.707014   -1.313851
     13          6           0       -0.122610   -0.596189   -0.517454
     14          6           0       -1.458341    0.065309   -0.557516
     15          6           0       -2.672036   -0.766323   -0.968524
     16          6           0       -3.393317   -1.522607    0.184817
     17          6           0       -4.001113   -0.566936    1.221323
     18          6           0       -2.519069   -2.587643    0.863410
     19          7           0       -1.747138    1.282889   -0.251665
     20          6           0        0.912090   -0.149965    0.351759
     21          8           0        1.080328    3.586496   -0.625373
     22          1           0        0.627683    2.756447   -2.680860
     23          1           0       -1.409021    3.188981    0.395066
     24          1           0       -0.809214    1.634514    2.224759
     25          1           0        0.388308    2.890278    1.896673
     26          1           0        2.730053    1.530190    2.562303
     27          1           0        3.901056   -0.465657    1.537103
     28          1           0        3.714933   -3.269660   -0.906973
     29          1           0        1.602642   -3.212583   -1.930642
     30          1           0       -0.556591   -2.087951   -2.010995
     31          1           0       -3.387098   -0.069475   -1.415483
     32          1           0       -2.407959   -1.497049   -1.739811
     33          1           0       -4.228206   -2.048656   -0.302498
     34          1           0       -3.224417   -0.015585    1.761569
     35          1           0       -4.654795    0.173543    0.747490
     36          1           0       -4.592854   -1.126036    1.956613
     37          1           0       -3.109996   -3.162344    1.587056
     38          1           0       -1.680056   -2.135760    1.404411
     39          1           0       -2.100166   -3.293247    0.136506
 ---------------------------------------------------------------------
                    Distance matrix (angstroms):
                    1          2          3          4          5
     1  O    0.000000
     2  C    1.350170   0.000000
     3  C    2.421578   1.533515   0.000000
     4  C    3.637241   2.524708   1.550149   0.000000
     5  C    3.827445   2.962439   2.516239   1.495891   0.000000
     6  C    4.810024   3.915771   3.761979   2.583816   1.374444
     7  N    5.221597   4.627642   4.649627   3.711514   2.253713
     8  C    4.607157   4.317458   4.308234   3.732487   2.286269
     9  C    5.229642   5.259662   5.359358   5.008599   3.627792
    10  O    6.379381   6.376504   6.583278   6.096438   4.634391
    11  C    4.996195   5.320497   5.365053   5.353259   4.196418
    12  C    4.129859   4.526895   4.385756   4.636924   3.798377
    13  C    3.341679   3.426711   3.052671   3.266036   2.622263
    14  C    3.094716   3.207359   2.441167   3.137978   3.199511
    15  C    4.222752   4.573353   3.769436   4.522546   4.638901
    16  C    5.601628   5.712297   4.614922   5.008999   5.159864
    17  C    5.932097   5.768150   4.416377   4.701297   5.229705
    18  C    6.263724   6.273262   5.220725   5.220588   5.003023
    19  N    2.733032   2.536878   1.453253   2.534345   3.173876
    20  C    3.632968   3.270867   2.990752   2.597052   1.435419
    21  O    2.248002   1.212648   2.421913   2.903713   3.268779
    22  H    0.976233   1.864232   3.236441   4.311660   4.381167
    23  H    2.979135   2.076754   1.100377   2.135001   3.422151
    24  H    4.461761   3.453338   2.143113   1.097762   2.161201
    25  H    4.073172   2.773953   2.166705   1.094622   2.139388
    26  H    5.500298   4.452196   4.324681   3.009146   2.224702
    27  H    6.066372   5.495238   5.618082   4.642821   3.224705
    28  H    6.860819   7.016369   7.250185   6.887769   5.461059
    29  H    5.793919   6.264525   6.371920   6.432433   5.282844
    30  H    4.456088   5.073131   4.909568   5.390821   4.739077
    31  H    4.174735   4.618398   3.852962   4.877972   5.255630
    32  H    4.518050   5.095532   4.547027   5.298909   5.171034
    33  H    6.324076   6.583825   5.554753   6.069461   6.232464
    34  H    5.536370   5.148327   3.700659   3.750530   4.363670
    35  H    5.838930   5.743643   4.434789   4.997704   5.738820
    36  H    7.016068   6.802460   5.405352   5.513580   6.005522
    37  H    7.302669   7.242789   6.089516   5.973604   5.817192
    38  H    5.921259   5.745660   4.679084   4.416533   4.083102
    39  H    6.402127   6.585306   5.738074   5.809458   5.372492
                    6          7          8          9         10
     6  C    0.000000
     7  N    1.379128   0.000000
     8  C    2.237623   1.375303   0.000000
     9  C    3.606918   2.508870   1.397815   0.000000
    10  O    4.245633   2.912417   2.366599   1.368554   0.000000
    11  C    4.570036   3.707388   2.380827   1.390098   2.447866
    12  C    4.577358   4.110481   2.753770   2.432964   3.717350
    13  C    3.662681   3.604656   2.463422   2.883959   4.250478
    14  C    4.500861   4.801938   3.841259   4.374670   5.741124
    15  C    5.911228   6.099186   5.014146   5.261681   6.605587
    16  C    6.362989   6.581090   5.591476   5.864603   7.139621
    17  C    6.458259   6.964413   6.213015   6.771657   8.050015
    18  C    5.984439   5.987115   5.010389   5.146948   6.286431
    19  N    4.542147   5.173712   4.483849   5.276002   6.611621
    20  C    2.256380   2.259797   1.416509   2.465660   3.686488
    21  O    3.851924   4.652301   4.662586   5.693379   6.638997
    22  H    5.163388   5.492658   4.970082   5.519590   6.539253
    23  H    4.575746   5.601818   5.372437   6.455552   7.666719
    24  H    3.189037   4.282911   4.265288   5.494449   6.601568
    25  H    2.754297   4.058277   4.384373   5.728136   6.691989
    26  H    1.081360   2.142619   3.256358   4.579347   5.042651
    27  H    2.137064   1.007652   2.119332   2.852902   2.762282
    28  H    5.179061   3.867205   3.175235   1.916727   0.970020
    29  H    5.599710   4.632470   3.374366   2.147236   2.719539
    30  H    5.617815   5.193742   3.835987   3.389026   4.574210
    31  H    6.589602   6.906562   5.878250   6.189586   7.545695
    32  H    6.345410   6.307468   5.079703   5.033652   6.321918
    33  H    7.435049   7.590499   6.532050   6.656053   7.902355
    34  H    5.560453   6.195936   5.605911   6.351940   7.608652
    35  H    7.039341   7.638578   6.889275   7.479897   8.802260
    36  H    7.143398   7.628825   6.927952   7.451547   8.666724
    37  H    6.725660   6.752528   5.874882   6.010221   7.054974
    38  H    4.980267   5.021257   4.169538   4.492883   5.616204
    39  H    6.270031   6.041072   4.918579   4.755253   5.827331
                   11         12         13         14         15
    11  C    0.000000
    12  C    1.406642   0.000000
    13  C    2.466929   1.399911   0.000000
    14  C    3.836263   2.529293   1.491094   0.000000
    15  C    4.406875   3.022953   2.594606   1.527611   0.000000
    16  C    5.103725   3.879251   3.471161   2.610875   1.556408
    17  C    6.236462   5.020813   4.250528   3.166969   2.569364
    18  C    4.492030   3.577839   3.408180   3.190976   2.587777
    19  N    4.938747   3.712359   2.498133   1.288196   2.359787
    20  C    2.793540   2.394706   1.423113   2.547954   3.868980
    21  O    5.993638   5.413487   4.353569   4.341452   5.757171
    22  H    5.367032   4.689522   4.059979   4.012768   5.121538
    23  H    6.452233   5.423665   4.100617   3.266064   4.370242
    24  H    5.763153   4.966499   3.600999   3.259574   4.408081
    25  H    6.222769   5.611234   4.271358   4.172961   5.562894
    26  H    5.619972   5.657459   4.705749   5.424186   6.850057
    27  H    4.200268   4.849246   4.519749   5.778624   7.040888
    28  H    2.491385   3.886282   4.693177   6.164974   6.860310
    29  H    1.088265   2.161270   3.437894   4.690380   5.018240
    30  H    2.130627   1.083367   2.155077   2.749961   2.703434
    31  H    5.331457   3.926325   3.426480   2.115272   1.093930
    32  H    3.955977   2.631168   2.743816   2.177282   1.094797
    33  H    5.744316   4.535615   4.360251   3.493714   2.123590
    34  H    6.028440   4.889701   3.892590   2.916114   2.884812
    35  H    6.890447   5.582189   4.767942   3.454283   2.785567
    36  H    6.941410   5.814944   5.136616   4.191100   3.517863
    37  H    5.421976   4.621396   4.465265   4.212469   3.530399
    38  H    4.107624   3.321531   2.913672   2.956860   2.913795
    39  H    3.909581   3.133499   3.407714   3.489055   2.816642
                   16         17         18         19         20
    16  C    0.000000
    17  C    1.535274   0.000000
    18  C    1.535936   2.531366   0.000000
    19  N    3.281955   3.266795   4.101254   0.000000
    20  C    4.522007   5.006952   4.239919   3.080371   0.000000
    21  O    6.839067   6.817795   7.300146   3.666173   3.865777
    22  H    6.533823   6.906349   7.143052   3.702990   4.210095
    23  H    5.116708   4.637732   5.900927   2.041022   4.066693
    24  H    4.561399   4.005182   4.754312   2.671333   3.107311
    25  H    6.058440   5.628094   6.287137   3.429167   3.450244
    26  H    7.243457   7.176682   6.884480   5.293847   3.318797
    27  H    7.493577   7.909124   6.795196   6.177313   3.230885
    28  H    7.400771   8.448179   6.516301   7.140683   4.378679
    29  H    5.682499   6.952439   5.018543   5.852287   3.881475
    30  H    3.631559   4.962469   3.516137   3.984370   3.390490
    31  H    2.161618   2.752676   3.505424   2.423392   4.648940
    32  H    2.162354   3.488777   2.824624   3.221695   4.148738
    33  H    1.100565   2.137544   2.137989   4.154212   5.518670
    34  H    2.187645   1.095039   2.814194   2.814516   4.372221
    35  H    2.187431   1.095503   3.492694   3.268551   5.590301
    36  H    2.176102   1.096997   2.762602   4.333303   5.816587
    37  H    2.176070   2.768392   1.096877   4.999837   5.174704
    38  H    2.190577   2.807496   1.095821   3.799243   3.430842
    39  H    2.193112   3.496169   1.096242   4.606118   4.358927
                   21         22         23         24         25
    21  O    0.000000
    22  H    2.262498   0.000000
    23  H    2.719590   3.714373   0.000000
    24  H    3.937494   5.233403   2.474654   0.000000
    25  H    2.706349   4.585741   2.361025   1.765968   0.000000
    26  H    4.136577   5.780521   4.957866   3.556857   2.788669
    27  H    5.390061   6.236035   6.546567   5.202906   4.871446
    28  H    7.350328   6.999411   8.346511   7.370656   7.541333
    29  H    6.942911   6.094480   7.447084   6.824863   7.305331
    30  H    6.066202   5.031840   5.861892   5.644659   6.398865
    31  H    5.826516   5.070057   4.220001   4.774979   5.829597
    32  H    6.265185   5.309701   5.245422   5.299103   6.347579
    33  H    7.748530   7.233621   5.988927   5.625147   7.109263
    34  H    6.099452   6.500616   3.928389   2.961516   4.638327
    35  H    6.813563   6.806581   4.444335   4.370956   5.842445
    36  H    7.814064   7.989608   5.585212   4.691319   6.398933
    37  H    8.246241   8.198624   6.682326   5.358182   6.997730
    38  H    6.669629   6.778554   5.426334   3.955541   5.457244
    39  H    7.617537   7.209543   6.524095   5.505469   6.893959
                   26         27         28         29         30
    26  H    0.000000
    27  H    2.530946   0.000000
    28  H    6.003701   3.724323   0.000000
    29  H    6.629593   4.985335   2.347963   0.000000
    30  H    6.693880   5.923804   4.567408   2.435886   0.000000
    31  H    7.470023   7.873494   7.806319   5.919630   3.527131
    32  H    7.353334   7.183704   6.428497   4.366279   1.962210
    33  H    8.332622   8.483803   8.059138   6.164768   4.049847
    34  H    6.203733   7.143201   8.115707   6.866856   5.064014
    35  H    7.724637   8.615953   9.200285   7.602221   5.433127
    36  H    7.813281   8.529865   9.045141   7.605827   5.740959
    37  H    7.554942   7.511955   7.267142   5.880959   4.540944
    38  H    5.850553   5.827149   5.977803   4.801899   3.595755
    39  H    7.244381   6.780236   5.908027   4.241509   2.906393
                   31         32         33         34         35
    31  H    0.000000
    32  H    1.761212   0.000000
    33  H    2.421437   2.383996   0.000000
    34  H    3.181671   3.888573   3.066161   0.000000
    35  H    2.518842   3.745106   2.494518   1.763550   0.000000
    36  H    3.733792   4.309869   2.467342   1.773066   1.776153
    37  H    4.319475   3.786041   2.461932   3.153671   3.770864
    38  H    3.890415   3.289974   3.068256   2.647216   3.822760
    39  H    3.802311   2.615651   2.504054   3.827249   4.349490
                   36         37         38         39
    36  H    0.000000
    37  H    2.545975   0.000000
    38  H    3.131910   1.769735   0.000000
    39  H    3.771351   1.772283   1.767442   0.000000
 Stoichiometry    C16H18N2O3
 Framework group  C1[X(C16H18N2O3)]
 Deg. of freedom   111
 Full point group                 C1      NOp   1
 Largest Abelian subgroup         C1      NOp   1
 Largest concise Abelian subgroup C1      NOp   1
                         Standard orientation:                         
 ---------------------------------------------------------------------
 Center     Atomic      Atomic             Coordinates (Angstroms)
 Number     Number       Type             X           Y           Z
 ---------------------------------------------------------------------
      1          8           0       -0.048912    2.337898   -2.115115
      2          6           0        0.191824    2.797932   -0.868771
      3          6           0       -0.801379    2.295686    0.186200
      4          6           0       -0.052264    1.968661    1.503334
      5          6           0        1.007650    0.935707    1.285896
      6          6           0        2.263849    0.874017    1.840201
      7          7           0        2.953006   -0.201661    1.320610
      8          6           0        2.151474   -0.834194    0.399249
      9          6           0        2.426134   -1.941291   -0.408702
     10          8           0        3.659969   -2.521729   -0.291734
     11          6           0        1.424370   -2.361794   -1.275892
     12          6           0        0.179997   -1.707014   -1.313851
     13          6           0       -0.122610   -0.596189   -0.517454
     14          6           0       -1.458341    0.065309   -0.557516
     15          6           0       -2.672036   -0.766323   -0.968524
     16          6           0       -3.393317   -1.522607    0.184817
     17          6           0       -4.001113   -0.566937    1.221323
     18          6           0       -2.519069   -2.587643    0.863410
     19          7           0       -1.747138    1.282889   -0.251665
     20          6           0        0.912090   -0.149965    0.351759
     21          8           0        1.080327    3.586496   -0.625373
     22          1           0        0.627683    2.756447   -2.680860
     23          1           0       -1.409022    3.188981    0.395066
     24          1           0       -0.809214    1.634514    2.224759
     25          1           0        0.388307    2.890278    1.896673
     26          1           0        2.730053    1.530190    2.562303
     27          1           0        3.901056   -0.465656    1.537103
     28          1           0        3.714933   -3.269659   -0.906973
     29          1           0        1.602642   -3.212583   -1.930642
     30          1           0       -0.556591   -2.087951   -2.010995
     31          1           0       -3.387098   -0.069475   -1.415483
     32          1           0       -2.407959   -1.497049   -1.739811
     33          1           0       -4.228206   -2.048657   -0.302498
     34          1           0       -3.224417   -0.015585    1.761569
     35          1           0       -4.654795    0.173542    0.747490
     36          1           0       -4.592854   -1.126037    1.956613
     37          1           0       -3.109996   -3.162344    1.587056
     38          1           0       -1.680056   -2.135760    1.404411
     39          1           0       -2.100166   -3.293247    0.136506
 ---------------------------------------------------------------------
 Rotational constants (GHZ):           0.3735066           0.3061367           0.2180627
 Standard basis: 6-31G(d) (6D, 7F)
 There are   351 symmetry adapted cartesian basis functions of A   symmetry.
 There are   351 symmetry adapted basis functions of A   symmetry.
   351 basis functions,   660 primitive gaussians,   351 cartesian basis functions
    76 alpha electrons       76 beta electrons
       nuclear repulsion energy      1739.4570939589 Hartrees.
 NAtoms=   39 NActive=   39 NUniq=   39 SFac= 1.00D+00 NAtFMM=   60 NAOKFM=F Big=F
 Integral buffers will be    131072 words long.
 Raffenetti 1 integral format.
 Two-electron integral symmetry is turned on.
 One-electron integrals computed using PRISM.
 NBasis=   351 RedAO= T EigKep=  2.68D-04  NBF=   351
 NBsUse=   351 1.00D-06 EigRej= -1.00D+00 NBFU=   351
 ExpMin= 1.61D-01 ExpMax= 5.48D+03 ExpMxC= 8.25D+02 IAcc=3 IRadAn=         5 AccDes= 0.00D+00
 Harris functional with IExCor=20419 and IRadAn=       5 diagonalized for initial guess.
 HarFok:  IExCor=20419 AccDes= 0.00D+00 IRadAn=         5 IDoV= 1 UseB2=F ITyADJ=14
 ICtDFT=  3500011 ScaDFX=  1.000000  1.000000  1.000000  1.000000
 FoFCou: FMM=F IPFlag=           0 FMFlag=      100000 FMFlg1=           0
         NFxFlg=           0 DoJE=T BraDBF=F KetDBF=T FulRan=T
         wScrn=  0.000000 ICntrl=       500 IOpCl=  0 I1Cent=   200000004 NGrid=           0
         NMat0=    1 NMatS0=      1 NMatT0=    0 NMatD0=    1 NMtDS0=    0 NMtDT0=    0
 Petite list used in FoFCou.
 Requested convergence on RMS density matrix=1.00D-08 within 128 cycles.
 Requested convergence on MAX density matrix=1.00D-06.
 Requested convergence on             energy=1.00D-06.
 No special actions if energy rises.
 Integral accuracy reduced to 1.0D-05 until final iterations.
 Initial convergence to 1.0D-05 achieved.  Increase integral accuracy.
 SCF Done:  E(RCAM-B3LYP) =  -955.243700386     A.U. after   16 cycles
            NFock= 16  Conv=0.32D-08     -V/T= 2.0093
 DoSCS=F DFT=T ScalE2(SS,OS)=  1.000000  1.000000
 ExpMin= 1.61D-01 ExpMax= 5.48D+03 ExpMxC= 8.25D+02 IAcc=3 IRadAn=         5 AccDes= 0.00D+00
 HarFok:  IExCor=  205 AccDes= 0.00D+00 IRadAn=         5 IDoV=-2 UseB2=F ITyADJ=14
 ICtDFT= 12500011 ScaDFX=  1.000000  1.000000  1.000000  1.000000
 GSVD:  LWork=        -609 too small for GESVD, short by        2520 words or        2520 for optimal perf.
 Range of M.O.s used for correlation:    22   351
 NBasis=   351 NAE=    76 NBE=    76 NFC=    21 NFV=     0
 NROrb=    330 NOA=    55 NOB=    55 NVA=   275 NVB=   275
 Orbital symmetries:
       Occupied  (A) (A) (A) (A) (A) (A) (A) (A) (A) (A) (A) (A)
                 (A) (A) (A) (A) (A) (A) (A) (A) (A) (A) (A) (A)
                 (A) (A) (A) (A) (A) (A) (A) (A) (A) (A) (A) (A)
                 (A) (A) (A) (A) (A) (A) (A) (A) (A) (A) (A) (A)
                 (A) (A) (A) (A) (A) (A) (A) (A) (A) (A) (A) (A)
                 (A) (A) (A) (A) (A) (A) (A) (A) (A) (A) (A) (A)
                 (A) (A) (A) (A)
       Virtual   (A) (A) (A) (A) (A) (A) (A) (A) (A) (A) (A) (A)
                 (A) (A) (A) (A) (A) (A) (A) (A) (A) (A) (A) (A)
                 (A) (A) (A) (A) (A) (A) (A) (A) (A) (A) (A) (A)
                 (A) (A) (A) (A) (A) (A) (A) (A) (A) (A) (A) (A)
                 (A) (A) (A) (A) (A) (A) (A) (A) (A) (A) (A) (A)
                 (A) (A) (A) (A) (A) (A) (A) (A) (A) (A) (A) (A)
                 (A) (A) (A) (A) (A) (A) (A) (A) (A) (A) (A) (A)
                 (A) (A) (A) (A) (A) (A) (A) (A) (A) (A) (A) (A)
                 (A) (A) (A) (A) (A) (A) (A) (A) (A) (A) (A) (A)
                 (A) (A) (A) (A) (A) (A) (A) (A) (A) (A) (A) (A)
                 (A) (A) (A) (A) (A) (A) (A) (A) (A) (A) (A) (A)
                 (A) (A) (A) (A) (A) (A) (A) (A) (A) (A) (A) (A)
                 (A) (A) (A) (A) (A) (A) (A) (A) (A) (A) (A) (A)
                 (A) (A) (A) (A) (A) (A) (A) (A) (A) (A) (A) (A)
                 (A) (A) (A) (A) (A) (A) (A) (A) (A) (A) (A) (A)
                 (A) (A) (A) (A) (A) (A) (A) (A) (A) (A) (A) (A)
                 (A) (A) (A) (A) (A) (A) (A) (A) (A) (A) (A) (A)
                 (A) (A) (A) (A) (A) (A) (A) (A) (A) (A) (A) (A)
                 (A) (A) (A) (A) (A) (A) (A) (A) (A) (A) (A) (A)
                 (A) (A) (A) (A) (A) (A) (A) (A) (A) (A) (A) (A)
                 (A) (A) (A) (A) (A) (A) (A) (A) (A) (A) (A) (A)
                 (A) (A) (A) (A) (A) (A) (A) (A) (A) (A) (A) (A)
                 (A) (A) (A) (A) (A) (A) (A) (A) (A) (A) (A)
    80 initial guesses have been made.
 Convergence on wavefunction:    0.001000000000000
 Iteration     1 Dimension    80 NMult     0 NNew     80
 CISAX will form    80 AO SS matrices at one time.
 New state      1 was old state      3
 New state      2 was old state      1
 New state      3 was old state      2
 New state      4 was old state      6
 New state      6 was old state      4
 New state      8 was old state     10
 New state     10 was old state     11
 New state     11 was old state      8
 New state     12 was old state     18
 New state     14 was old state     12
 New state     15 was old state     14
 New state     16 was old state     19
 New state     17 was old state     20
 New state     18 was old state     16
 New state     19 was old state     17
 New state     20 was old state     23
 Iteration     2 Dimension   120 NMult    80 NNew     40
 New state     10 was old state     11
 New state     11 was old state     10
 New state     12 was old state     13
 New state     13 was old state     12
 New state     14 was old state     15
 New state     15 was old state     14
 Iteration     3 Dimension   160 NMult   120 NNew     40
 Iteration     4 Dimension   200 NMult   160 NNew     40
 Iteration     5 Dimension   232 NMult   200 NNew     32
 Iteration     6 Dimension   240 NMult   232 NNew      8
 ***********************************************************************
 Excited states from <AA,BB:AA,BB> singles matrix:
 ***********************************************************************
 
 Ground to excited state transition densities written to RWF  633
 Ground to excited state transition electric dipole moments (Au):
       state          X           Y           Z        Dip. S.      Osc.
         1        -0.7133      0.3047     -0.0987      0.6114      0.0632
         2        -1.0318      0.4859     -0.2245      1.3511      0.1473
         3         0.1599     -0.3205     -0.1732      0.1583      0.0187
         4        -0.1268     -0.4103     -0.3322      0.2948      0.0409
         5         0.2213     -0.9883     -0.3492      1.1476      0.1624
         6        -0.2771     -0.7637     -0.8733      1.4228      0.2050
         7         0.3180      0.0611      0.3120      0.2022      0.0305
         8        -0.2455      0.4147      0.2968      0.3204      0.0503
         9         0.1800     -0.2190      0.0137      0.0805      0.0129
        10         0.0598      0.8407      0.3266      0.8169      0.1314
        11        -0.1416     -0.1949     -0.0577      0.0614      0.0100
        12         0.9288     -0.2854     -0.1586      0.9693      0.1593
        13        -0.1546      0.1596      0.2640      0.1191      0.0203
        14        -0.1254      0.5814      0.2505      0.4165      0.0721
        15         0.0437     -0.0469      0.0073      0.0042      0.0007
        16         0.0066      0.0943     -0.0708      0.0139      0.0025
        17        -0.7416      0.0691     -0.1950      0.5929      0.1070
        18        -0.4738      0.3360     -0.0313      0.3384      0.0613
        19        -0.1565     -0.0928     -0.2542      0.0977      0.0179
        20         0.2926      0.0502      0.2773      0.1650      0.0303
 Ground to excited state transition velocity dipole moments (Au):
       state          X           Y           Z        Dip. S.      Osc.
         1         0.1123     -0.0469      0.0086      0.0149      0.0640
         2         0.1657     -0.0849      0.0358      0.0359      0.1465
         3        -0.0304      0.0567      0.0297      0.0050      0.0189
         4         0.0331      0.0756      0.0693      0.0116      0.0372
         5        -0.0377      0.1994      0.0710      0.0462      0.1452
         6         0.0611      0.1594      0.1844      0.0631      0.1948
         7        -0.0706     -0.0174     -0.0730      0.0106      0.0313
         8         0.0546     -0.0938     -0.0660      0.0162      0.0457
         9        -0.0559      0.0579     -0.0099      0.0066      0.0182
        10        -0.0135     -0.2109     -0.0722      0.0499      0.1379
        11         0.0160      0.0225      0.0444      0.0027      0.0075
        12        -0.2328      0.0698      0.0428      0.0609      0.1647
        13         0.0433     -0.0387     -0.0758      0.0091      0.0238
        14         0.0324     -0.1435     -0.0635      0.0257      0.0660
        15        -0.0028      0.0129     -0.0068      0.0002      0.0006
        16        -0.0049     -0.0267      0.0203      0.0012      0.0029
        17         0.1979     -0.0237      0.0441      0.0417      0.1027
        18         0.1217     -0.0889      0.0101      0.0228      0.0560
        19         0.0387      0.0270      0.0645      0.0064      0.0155
        20        -0.0763     -0.0097     -0.0691      0.0107      0.0259
 Ground to excited state transition magnetic dipole moments (Au):
       state          X           Y           Z
         1        -0.2321     -0.9437      0.1535
         2        -0.2835      0.1272      0.7312
         3        -0.1695     -0.2213      0.2976
         4         0.3989      0.2349      0.1701
         5         0.3467      0.2883     -0.8879
         6        -0.7442     -0.9828      0.9781
         7         0.2908      0.5167     -1.0294
         8        -0.2549     -0.2745     -0.1104
         9        -0.5267     -0.1676      0.4386
        10        -0.0744      0.3339     -0.2218
        11        -0.3563     -0.6286     -0.3321
        12        -0.1892     -0.2375      0.4469
        13        -0.2337     -0.4062     -0.4631
        14         0.1746      0.1988     -0.2103
        15         0.0464     -0.1650     -0.1927
        16         0.2282      0.4840     -0.4348
        17        -0.0982     -0.1454      0.2855
        18         0.3847      0.6822     -0.7484
        19        -0.0574     -0.0280      0.0507
        20         0.4713      0.1398     -0.5112
 Ground to excited state transition velocity quadrupole moments (Au):
       state          XX          YY          ZZ          XY          XZ          YZ
         1         0.1865     -0.0519      0.1026     -0.2291      0.2226      0.0818
         2         0.5394     -0.0233      0.0456     -0.2255      0.0544      0.1277
         3        -0.3064     -0.0548      0.0845      0.2954      0.0693      0.0305
         4         0.1920     -0.4163      0.1015      0.3815      0.3698     -0.1946
         5        -0.1389     -0.0786      0.1189      0.4134      0.3889     -0.2270
         6         0.5898     -0.6572      0.0946      0.4676      0.7649     -0.2949
         7        -0.1649      0.2057      0.1056      0.0749     -0.0066      0.0469
         8        -0.1587      0.2013     -0.0478     -0.3989     -0.2800      0.0748
         9        -0.1724     -0.1517      0.0790      0.4948      0.0416     -0.1002
        10         0.3910      0.0681     -0.1009     -0.1926     -0.1061      0.0727
        11        -0.3395      0.3805     -0.0404     -0.2786      0.1804     -0.1979
        12        -0.6996     -0.5434      0.3954      1.2502      0.4271      0.1593
        13         0.2655      0.1072     -0.1117     -0.2927      0.0185     -0.2119
        14         0.2562      0.2075     -0.0182     -0.5164     -0.2122      0.2080
        15        -0.1518     -0.0182      0.0573     -0.0955      0.0459      0.0533
        16         0.0702     -0.0932     -0.0982      0.0977      0.0522      0.0466
        17         0.6961     -0.0131      0.0824     -0.3391      0.2776      0.0010
        18         0.5113     -0.3673      0.1487      0.3707      0.6244      0.0418
        19         0.1764     -0.4742      0.2761      0.4659      0.4372      0.0420
        20        -0.3286      0.1381     -0.2308     -0.4010     -0.3669     -0.0789
 <0|del|b> * <b|rxdel|0> + <0|del|b> * <b|delr+rdel|0>
 Rotatory Strengths (R) in cgs (10**-40 erg-esu-cm/Gauss)
       state          XX          YY          ZZ    R(velocity)    E-M Angle
         1       123.3573    -31.0039     -3.2444     29.7030       80.64
         2        25.7742     18.2153   -180.5862    -45.5323      102.11
         3         2.2197      8.5643     -5.0670      1.9057       87.16
         4        47.6451    -13.4109    111.0657     48.4333       36.45
         5       -89.5869   -161.5503    188.9529    -20.7281       95.00
         6       -19.8078     50.0628   -101.7768    -23.8406       93.17
         7        94.5774     88.5994    -40.7284     47.4828       68.12
         8        49.7156    -43.3802     51.0706     19.1353       67.34
         9       -31.3533     52.3182     24.3049     15.0899       74.39
        10       -92.1561      3.1285    -67.5255    -52.1844      125.91
        11       -65.6964    -16.2709    -18.2979    -33.4217      146.32
        12        37.6518    -39.3144    135.3839     44.5738       69.54
        13       101.9068     -8.7842     19.4146     37.5124       49.67
        14       -17.4639     -9.5952      1.1447     -8.6381      100.11
        15        -1.0003      0.5132     -2.0331     -0.8401      104.18
        16       -24.3614    -16.0963    -20.1593    -20.2056      168.01
        17         9.9984     10.8280    -29.7302     -2.9679       92.86
        18       -11.6486     52.8223    -96.8893    -18.5719       97.52
        19        26.7555    -35.2532      9.2574      0.2532       87.41
        20        74.5594    -28.6470    -51.0360     -1.7079       91.56
 1/2[<0|r|b>*<b|rxdel|0> + (<0|rxdel|b>*<b|r|0>)*]
 Rotatory Strengths (R) in cgs (10**-40 erg-esu-cm/Gauss)
       state          XX          YY          ZZ     R(length)
         1      -117.0586    203.3608     10.7162     32.3395
         2      -206.8410    -43.7252    116.0836    -44.8275
         3        19.1617    -50.1527     36.4610      1.8234
         4        35.7697     68.1710     39.9618     47.9675
         5       -54.2662    201.4662   -219.2566    -24.0189
         6      -145.8222   -530.8145    604.0286    -24.2027
         7       -65.3870    -22.3205    227.0926     46.4617
         8       -44.2596     80.4928     23.1850     19.8061
         9        67.0375    -25.9516     -4.2620     12.2746
        10         3.1474   -198.4714     51.2278    -48.0321
        11       -35.6870    -86.6248    -13.5537    -45.2885
        12       124.2967    -47.9427     50.1359     42.1633
        13       -25.5439     45.8353     86.4765     35.5893
        14        15.4880    -81.7411     37.2574     -9.6652
        15        -1.4314     -5.4688      0.9909     -1.9698
        16        -1.0683    -32.2848    -21.7584    -18.3705
        17       -51.4910      7.1078     39.3778     -1.6685
        18       128.8915   -162.0973    -16.5779    -16.5946
        19        -6.3509     -1.8399      9.1159      0.3084
        20       -97.5199     -4.9634    100.2378     -0.7485
  1/2[<0|del|b>*<b|r|0> + (<0|r|b>*<b|del|0>)*] (Au)
       state          X           Y           Z        Dip. S.   Osc.(frdel)
         1        -0.0801     -0.0143     -0.0008      0.0953      0.0635
         2        -0.1710     -0.0412     -0.0080      0.2202      0.1468
         3        -0.0049     -0.0182     -0.0051      0.0282      0.0188
         4        -0.0042     -0.0310     -0.0230      0.0582      0.0388
         5        -0.0083     -0.1971     -0.0248      0.2302      0.1535
         6        -0.0169     -0.1218     -0.1610      0.2997      0.1998
         7        -0.0225     -0.0011     -0.0228      0.0463      0.0309
         8        -0.0134     -0.0389     -0.0196      0.0719      0.0480
         9        -0.0101     -0.0127     -0.0001      0.0229      0.0153
        10        -0.0008     -0.1773     -0.0236      0.2017      0.1345
        11        -0.0023     -0.0044     -0.0026      0.0092      0.0061
        12        -0.2162     -0.0199     -0.0068      0.2429      0.1620
        13        -0.0067     -0.0062     -0.0200      0.0329      0.0219
        14        -0.0041     -0.0834     -0.0159      0.1034      0.0689
        15        -0.0001     -0.0006     -0.0000      0.0008      0.0005
        16        -0.0000     -0.0025     -0.0014      0.0040      0.0027
        17        -0.1468     -0.0016     -0.0086      0.1570      0.1047
        18        -0.0577     -0.0299     -0.0003      0.0879      0.0586
        19        -0.0061     -0.0025     -0.0164      0.0250      0.0166
        20        -0.0223     -0.0005     -0.0192      0.0420      0.0280

 Excitation energies and oscillator strengths:
 
 Excited State   1:      Singlet-A      4.2171 eV  294.00 nm  f=0.0632  <S**2>=0.000
      74 -> 77         0.48289
      74 -> 78        -0.11688
      74 -> 80         0.17112
      76 -> 77         0.44058
 
 Excited State   2:      Singlet-A      4.4514 eV  278.53 nm  f=0.1473  <S**2>=0.000
      74 -> 77        -0.41732
      74 -> 80        -0.11218
      76 -> 77         0.53151
 
 Excited State   3:      Singlet-A      4.8180 eV  257.33 nm  f=0.0187  <S**2>=0.000
      73 -> 77        -0.12900
      75 -> 77         0.54092
      76 -> 78        -0.37264
      76 -> 79         0.12196
 
 Excited State   4:      Singlet-A      5.6622 eV  218.97 nm  f=0.0409  <S**2>=0.000
      71 -> 78         0.11180
      71 -> 79         0.20481
      72 -> 78         0.16672
      72 -> 79         0.25608
      73 -> 78        -0.11695
      73 -> 79        -0.20328
      74 -> 78         0.20740
      74 -> 79         0.27141
      75 -> 77         0.17516
      76 -> 78         0.29863
      76 -> 79         0.20764
 
 Excited State   5:      Singlet-A      5.7751 eV  214.69 nm  f=0.1624  <S**2>=0.000
      73 -> 77         0.59589
      75 -> 77         0.24034
      76 -> 78         0.13120
      76 -> 80        -0.10213
 
 Excited State   6:      Singlet-A      5.8807 eV  210.83 nm  f=0.2050  <S**2>=0.000
      71 -> 79        -0.12568
      72 -> 79        -0.11543
      73 -> 77        -0.30117
      73 -> 78         0.12606
      73 -> 79         0.11000
      74 -> 78        -0.10688
      74 -> 79        -0.11726
      75 -> 77         0.26962
      76 -> 78         0.47159
 
 Excited State   7:      Singlet-A      6.1617 eV  201.22 nm  f=0.0305  <S**2>=0.000
      72 -> 77        -0.11247
      75 -> 77        -0.15004
      75 -> 78         0.45282
      76 -> 79         0.27209
      76 -> 80        -0.37613
 
 Excited State   8:      Singlet-A      6.4084 eV  193.47 nm  f=0.0503  <S**2>=0.000
      71 -> 79        -0.11447
      75 -> 78        -0.17322
      75 -> 79         0.13250
      76 -> 79         0.56669
      76 -> 80         0.23362
 
 Excited State   9:      Singlet-A      6.5455 eV  189.42 nm  f=0.0129  <S**2>=0.000
      72 -> 79        -0.16511
      73 -> 78         0.17450
      73 -> 79         0.12941
      74 -> 77         0.10498
      74 -> 78         0.45177
      74 -> 79         0.22531
      75 -> 78         0.24669
      76 -> 80         0.20818
 
 Excited State  10:      Singlet-A      6.5640 eV  188.88 nm  f=0.1314  <S**2>=0.000
      72 -> 77         0.44999
      73 -> 77        -0.10530
      74 -> 77         0.11843
      74 -> 78         0.18750
      75 -> 78        -0.19272
      76 -> 80        -0.31175
      76 -> 81         0.14269
 
 Excited State  11:      Singlet-A      6.6369 eV  186.81 nm  f=0.0100  <S**2>=0.000
      72 -> 77        -0.19786
      72 -> 81        -0.14823
      75 -> 81        -0.11215
      76 -> 81         0.61986
 
 Excited State  12:      Singlet-A      6.7066 eV  184.87 nm  f=0.1593  <S**2>=0.000
      72 -> 77         0.42576
      74 -> 78        -0.17526
      74 -> 80         0.13554
      75 -> 78         0.34460
      76 -> 80         0.28516
      76 -> 81         0.12609
 
 Excited State  13:      Singlet-A      6.9602 eV  178.13 nm  f=0.0203  <S**2>=0.000
      73 -> 78         0.14022
      74 -> 77        -0.20723
      74 -> 78        -0.10069
      74 -> 79         0.36126
      74 -> 80         0.43883
      75 -> 80         0.14202
      76 -> 80        -0.13410
 
 Excited State  14:      Singlet-A      7.0611 eV  175.59 nm  f=0.0721  <S**2>=0.000
      72 -> 78         0.23559
      73 -> 78         0.48107
      73 -> 79        -0.12866
      74 -> 79        -0.18164
      75 -> 79        -0.19289
      75 -> 80         0.20789
      75 -> 82        -0.15111
 
 Excited State  15:      Singlet-A      7.1745 eV  172.81 nm  f=0.0007  <S**2>=0.000
      70 -> 77        -0.10649
      73 -> 78        -0.17290
      74 -> 78         0.32965
      74 -> 79        -0.38079
      74 -> 80         0.39684
 
 Excited State  16:      Singlet-A      7.2670 eV  170.61 nm  f=0.0025  <S**2>=0.000
      63 -> 77        -0.10062
      66 -> 77         0.19449
      69 -> 77        -0.16454
      70 -> 77        -0.33986
      71 -> 77         0.43316
      72 -> 77         0.12561
      76 -> 82         0.16826
 
 Excited State  17:      Singlet-A      7.3643 eV  168.36 nm  f=0.1070  <S**2>=0.000
      71 -> 79         0.10034
      72 -> 78         0.10584
      73 -> 78         0.17854
      74 -> 79        -0.10160
      75 -> 79         0.49535
      75 -> 80        -0.24497
      75 -> 81         0.14851
      76 -> 80        -0.13177
      76 -> 84         0.11609
 
 Excited State  18:      Singlet-A      7.3968 eV  167.62 nm  f=0.0613  <S**2>=0.000
      70 -> 77         0.11492
      75 -> 81        -0.12570
      76 -> 82         0.57838
      76 -> 83         0.20599
      76 -> 84        -0.16039
 
 Excited State  19:      Singlet-A      7.4727 eV  165.92 nm  f=0.0179  <S**2>=0.000
      75 -> 79        -0.33634
      75 -> 80        -0.30452
      75 -> 81         0.21659
      76 -> 82         0.17698
      76 -> 84         0.34446
      76 -> 85         0.16341
 
 Excited State  20:      Singlet-A      7.4990 eV  165.33 nm  f=0.0303  <S**2>=0.000
      69 -> 77         0.12745
      70 -> 77         0.22315
      71 -> 77         0.22373
      73 -> 78        -0.13809
      75 -> 79         0.18574
      75 -> 80         0.33333
      75 -> 81         0.15758
      76 -> 82         0.15498
      76 -> 84         0.28503
 This state for optimization and/or second-order correction.
 Total Energy, E(TD-HF/TD-DFT) =  -954.968116304    
 Copying the excited state density for this state as the 1-particle RhoCI density.
 SavETr:  write IOETrn=   770 NScale= 10 NData=  16 NLR=1 NState=   20 LETran=     370.

 **********************************************************************

            Population analysis using the SCF density.

 **********************************************************************

 Orbital symmetries:
       Occupied  (A) (A) (A) (A) (A) (A) (A) (A) (A) (A) (A) (A)
                 (A) (A) (A) (A) (A) (A) (A) (A) (A) (A) (A) (A)
                 (A) (A) (A) (A) (A) (A) (A) (A) (A) (A) (A) (A)
                 (A) (A) (A) (A) (A) (A) (A) (A) (A) (A) (A) (A)
                 (A) (A) (A) (A) (A) (A) (A) (A) (A) (A) (A) (A)
                 (A) (A) (A) (A) (A) (A) (A) (A) (A) (A) (A) (A)
                 (A) (A) (A) (A)
       Virtual   (A) (A) (A) (A) (A) (A) (A) (A) (A) (A) (A) (A)
                 (A) (A) (A) (A) (A) (A) (A) (A) (A) (A) (A) (A)
                 (A) (A) (A) (A) (A) (A) (A) (A) (A) (A) (A) (A)
                 (A) (A) (A) (A) (A) (A) (A) (A) (A) (A) (A) (A)
                 (A) (A) (A) (A) (A) (A) (A) (A) (A) (A) (A) (A)
                 (A) (A) (A) (A) (A) (A) (A) (A) (A) (A) (A) (A)
                 (A) (A) (A) (A) (A) (A) (A) (A) (A) (A) (A) (A)
                 (A) (A) (A) (A) (A) (A) (A) (A) (A) (A) (A) (A)
                 (A) (A) (A) (A) (A) (A) (A) (A) (A) (A) (A) (A)
                 (A) (A) (A) (A) (A) (A) (A) (A) (A) (A) (A) (A)
                 (A) (A) (A) (A) (A) (A) (A) (A) (A) (A) (A) (A)
                 (A) (A) (A) (A) (A) (A) (A) (A) (A) (A) (A) (A)
                 (A) (A) (A) (A) (A) (A) (A) (A) (A) (A) (A) (A)
                 (A) (A) (A) (A) (A) (A) (A) (A) (A) (A) (A) (A)
                 (A) (A) (A) (A) (A) (A) (A) (A) (A) (A) (A) (A)
                 (A) (A) (A) (A) (A) (A) (A) (A) (A) (A) (A) (A)
                 (A) (A) (A) (A) (A) (A) (A) (A) (A) (A) (A) (A)
                 (A) (A) (A) (A) (A) (A) (A) (A) (A) (A) (A) (A)
                 (A) (A) (A) (A) (A) (A) (A) (A) (A) (A) (A) (A)
                 (A) (A) (A) (A) (A) (A) (A) (A) (A) (A) (A) (A)
                 (A) (A) (A) (A) (A) (A) (A) (A) (A) (A) (A) (A)
                 (A) (A) (A) (A) (A) (A) (A) (A) (A) (A) (A) (A)
                 (A) (A) (A) (A) (A) (A) (A) (A) (A) (A) (A)
 The electronic state is 1-A.
 Alpha  occ. eigenvalues --  -19.26461 -19.26091 -19.20113 -14.45395 -14.37713
 Alpha  occ. eigenvalues --  -10.38824 -10.33335 -10.30122 -10.29435 -10.29322
 Alpha  occ. eigenvalues --  -10.29250 -10.26494 -10.26440 -10.26326 -10.26178
 Alpha  occ. eigenvalues --  -10.26169 -10.25505 -10.25263 -10.24347 -10.23434
 Alpha  occ. eigenvalues --  -10.22964  -1.17834  -1.15137  -1.08321  -1.06285
 Alpha  occ. eigenvalues --   -0.99183  -0.92457  -0.88926  -0.87179  -0.84624
 Alpha  occ. eigenvalues --   -0.82056  -0.79549  -0.77188  -0.74683  -0.74334
 Alpha  occ. eigenvalues --   -0.71178  -0.68575  -0.67691  -0.64818  -0.64161
 Alpha  occ. eigenvalues --   -0.61583  -0.59625  -0.58550  -0.55824  -0.54858
 Alpha  occ. eigenvalues --   -0.54661  -0.53912  -0.52784  -0.51757  -0.51036
 Alpha  occ. eigenvalues --   -0.49782  -0.49227  -0.48739  -0.47682  -0.47476
 Alpha  occ. eigenvalues --   -0.46721  -0.45678  -0.45402  -0.45003  -0.44017
 Alpha  occ. eigenvalues --   -0.43642  -0.43329  -0.41869  -0.41152  -0.40587
 Alpha  occ. eigenvalues --   -0.40226  -0.38518  -0.37649  -0.37248  -0.36672
 Alpha  occ. eigenvalues --   -0.35394  -0.32622  -0.30482  -0.28122  -0.27464
 Alpha  occ. eigenvalues --   -0.24377
 Alpha virt. eigenvalues --    0.01075   0.05668   0.08009   0.09476   0.10470
 Alpha virt. eigenvalues --    0.12604   0.13601   0.13938   0.14635   0.15776
 Alpha virt. eigenvalues --    0.16617   0.18944   0.19648   0.20112   0.20798
 Alpha virt. eigenvalues --    0.21290   0.22773   0.23173   0.23469   0.24624
 Alpha virt. eigenvalues --    0.24866   0.25544   0.26735   0.27431   0.27807
 Alpha virt. eigenvalues --    0.28401   0.29041   0.29504   0.31212   0.31693
 Alpha virt. eigenvalues --    0.32545   0.33075   0.33599   0.34563   0.34853
 Alpha virt. eigenvalues --    0.37132   0.38869   0.39011   0.42338   0.42982
 Alpha virt. eigenvalues --    0.45546   0.46509   0.47082   0.50134   0.52687
 Alpha virt. eigenvalues --    0.54086   0.54288   0.56695   0.57814   0.58239
 Alpha virt. eigenvalues --    0.59094   0.59523   0.59907   0.60970   0.61078
 Alpha virt. eigenvalues --    0.61780   0.62661   0.63820   0.64177   0.65451
 Alpha virt. eigenvalues --    0.66183   0.67159   0.68042   0.68944   0.69290
 Alpha virt. eigenvalues --    0.69683   0.70389   0.71762   0.72515   0.73684
 Alpha virt. eigenvalues --    0.74524   0.75317   0.76340   0.76765   0.78772
 Alpha virt. eigenvalues --    0.79161   0.79782   0.80137   0.81327   0.81724
 Alpha virt. eigenvalues --    0.83403   0.84890   0.85116   0.85937   0.86861
 Alpha virt. eigenvalues --    0.87948   0.88230   0.89101   0.89857   0.90903
 Alpha virt. eigenvalues --    0.91663   0.92490   0.93010   0.93533   0.94439
 Alpha virt. eigenvalues --    0.95230   0.96451   0.97046   0.97956   0.98224
 Alpha virt. eigenvalues --    0.98852   0.99543   1.00589   1.00896   1.02386
 Alpha virt. eigenvalues --    1.03001   1.03511   1.04054   1.05505   1.05903
 Alpha virt. eigenvalues --    1.06692   1.07836   1.08272   1.09630   1.10378
 Alpha virt. eigenvalues --    1.11136   1.12303   1.12901   1.14167   1.15223
 Alpha virt. eigenvalues --    1.16801   1.18772   1.19500   1.21223   1.22277
 Alpha virt. eigenvalues --    1.24536   1.26326   1.29385   1.30029   1.30560
 Alpha virt. eigenvalues --    1.32332   1.32966   1.35694   1.36946   1.39187
 Alpha virt. eigenvalues --    1.40081   1.41225   1.43165   1.44455   1.46009
 Alpha virt. eigenvalues --    1.47270   1.48083   1.51319   1.51694   1.52349
 Alpha virt. eigenvalues --    1.55852   1.56216   1.57960   1.58263   1.61029
 Alpha virt. eigenvalues --    1.63372   1.65981   1.67393   1.68209   1.69945
 Alpha virt. eigenvalues --    1.71857   1.73184   1.75861   1.77733   1.78224
 Alpha virt. eigenvalues --    1.79809   1.80880   1.81498   1.83077   1.83631
 Alpha virt. eigenvalues --    1.84509   1.85300   1.85866   1.88233   1.89861
 Alpha virt. eigenvalues --    1.90342   1.91958   1.92438   1.93548   1.94926
 Alpha virt. eigenvalues --    1.95066   1.96111   1.97467   2.00434   2.01724
 Alpha virt. eigenvalues --    2.01970   2.03303   2.04157   2.05685   2.07536
 Alpha virt. eigenvalues --    2.08458   2.09461   2.10264   2.12626   2.13294
 Alpha virt. eigenvalues --    2.14139   2.14717   2.15998   2.16466   2.19218
 Alpha virt. eigenvalues --    2.20083   2.21240   2.21844   2.23580   2.25422
 Alpha virt. eigenvalues --    2.26831   2.28936   2.32119   2.33232   2.34226
 Alpha virt. eigenvalues --    2.34704   2.36565   2.37716   2.38214   2.39593
 Alpha virt. eigenvalues --    2.40202   2.42748   2.43606   2.44942   2.46374
 Alpha virt. eigenvalues --    2.49019   2.51588   2.52397   2.52837   2.55031
 Alpha virt. eigenvalues --    2.55576   2.56863   2.58737   2.60547   2.62624
 Alpha virt. eigenvalues --    2.62705   2.64430   2.65963   2.69394   2.72241
 Alpha virt. eigenvalues --    2.73828   2.74829   2.75100   2.76397   2.79394
 Alpha virt. eigenvalues --    2.79914   2.81047   2.83371   2.84619   2.86750
 Alpha virt. eigenvalues --    2.87166   2.92369   2.95311   2.98203   3.02793
 Alpha virt. eigenvalues --    3.06667   3.07912   3.08788   3.12979   3.17404
 Alpha virt. eigenvalues --    3.23215   3.29184   3.40232   3.54521   3.91335
 Alpha virt. eigenvalues --    4.01251   4.13371   4.16413   4.18715   4.21013
 Alpha virt. eigenvalues --    4.22232   4.29226   4.30642   4.37568   4.38348
 Alpha virt. eigenvalues --    4.40465   4.42743   4.44512   4.48527   4.53573
 Alpha virt. eigenvalues --    4.62555   4.70163   4.73889   4.75953   4.98534
          Condensed to atoms (all electrons):
               1          2          3          4          5          6
     1  O    8.208634   0.300765  -0.089391   0.001971  -0.000798   0.000004
     2  C    0.300765   4.396094   0.274024  -0.026498  -0.004178   0.001010
     3  C   -0.089391   0.274024   5.190329   0.298979  -0.027825   0.002296
     4  C    0.001971  -0.026498   0.298979   5.212014   0.351374  -0.082212
     5  C   -0.000798  -0.004178  -0.027825   0.351374   4.907593   0.510681
     6  C    0.000004   0.001010   0.002296  -0.082212   0.510681   5.016614
     7  N    0.000001  -0.000120  -0.000034   0.005221  -0.047931   0.316000
     8  C   -0.000023  -0.000041  -0.000378   0.011977  -0.010871  -0.139714
     9  C   -0.000001   0.000017   0.000001  -0.000253   0.015019   0.004995
    10  O   -0.000000   0.000000  -0.000000   0.000000  -0.000135   0.000135
    11  C    0.000007  -0.000017   0.000004   0.000027  -0.000315  -0.000149
    12  C   -0.000271   0.000074  -0.000108  -0.000359   0.010176  -0.000238
    13  C    0.002104   0.002739  -0.009295  -0.016201  -0.101094   0.016825
    14  C    0.003575  -0.006341  -0.065938   0.002705  -0.017050  -0.000346
    15  C   -0.000189  -0.000223   0.007609  -0.000478   0.000121   0.000004
    16  C   -0.000000  -0.000006  -0.000073   0.000012   0.000018  -0.000000
    17  C   -0.000000   0.000002  -0.000172  -0.000104  -0.000005  -0.000000
    18  C    0.000000  -0.000000  -0.000003  -0.000006  -0.000025   0.000002
    19  N   -0.000381  -0.030992   0.265920  -0.043947  -0.004193   0.000082
    20  C   -0.000037  -0.000462  -0.002296  -0.058933   0.433865   0.017243
    21  O   -0.085881   0.556209  -0.073109   0.000527  -0.001028  -0.000297
    22  H    0.222848  -0.009454   0.010441  -0.000246   0.000023   0.000004
    23  H    0.001079  -0.045425   0.385472  -0.039121   0.005134  -0.000128
    24  H   -0.000049   0.005723  -0.043229   0.371750  -0.030076   0.000235
    25  H    0.000135  -0.005325  -0.020796   0.350407  -0.029170  -0.005974
    26  H    0.000000  -0.000009   0.000047  -0.002614  -0.026100   0.368820
    27  H   -0.000000   0.000000   0.000002  -0.000079   0.003279  -0.027969
    28  H   -0.000000   0.000000   0.000000  -0.000000   0.000008   0.000003
    29  H    0.000000  -0.000000  -0.000000   0.000000   0.000009   0.000001
    30  H   -0.000001  -0.000000  -0.000001  -0.000001  -0.000156   0.000005
    31  H    0.000038   0.000024   0.000020   0.000028  -0.000010  -0.000000
    32  H    0.000004   0.000010  -0.000214   0.000007  -0.000004  -0.000000
    33  H    0.000000   0.000000   0.000007  -0.000001  -0.000000   0.000000
    34  H   -0.000000   0.000018   0.000139  -0.000018  -0.000079  -0.000001
    35  H   -0.000000   0.000000   0.000016   0.000002  -0.000000   0.000000
    36  H    0.000000   0.000000  -0.000002   0.000001   0.000000   0.000000
    37  H    0.000000  -0.000000  -0.000000   0.000000  -0.000001  -0.000000
    38  H    0.000000   0.000001   0.000002   0.000010   0.000073  -0.000004
    39  H   -0.000000   0.000000  -0.000000   0.000000  -0.000001   0.000000
               7          8          9         10         11         12
     1  O    0.000001  -0.000023  -0.000001  -0.000000   0.000007  -0.000271
     2  C   -0.000120  -0.000041   0.000017   0.000000  -0.000017   0.000074
     3  C   -0.000034  -0.000378   0.000001  -0.000000   0.000004  -0.000108
     4  C    0.005221   0.011977  -0.000253   0.000000   0.000027  -0.000359
     5  C   -0.047931  -0.010871   0.015019  -0.000135  -0.000315   0.010176
     6  C    0.316000  -0.139714   0.004995   0.000135  -0.000149  -0.000238
     7  N    7.005492   0.272091  -0.094279  -0.001430   0.007084  -0.000463
     8  C    0.272091   4.917889   0.415995  -0.050285  -0.041736  -0.054461
     9  C   -0.094279   0.415995   4.724983   0.287951   0.487102   0.004787
    10  O   -0.001430  -0.050285   0.287951   8.237273  -0.069930   0.003543
    11  C    0.007084  -0.041736   0.487102  -0.069930   5.134605   0.446601
    12  C   -0.000463  -0.054461   0.004787   0.003543   0.446601   5.069131
    13  C    0.011226  -0.048905  -0.052798   0.000316  -0.014874   0.485838
    14  C   -0.000096   0.009062  -0.000205   0.000001   0.005296  -0.055564
    15  C    0.000001  -0.000166  -0.000007  -0.000000   0.000503  -0.005875
    16  C   -0.000000   0.000004   0.000003  -0.000000  -0.000013  -0.001109
    17  C    0.000000   0.000000  -0.000000   0.000000   0.000001  -0.000017
    18  C    0.000000  -0.000050   0.000005   0.000000  -0.000101   0.000095
    19  N    0.000003  -0.000008  -0.000013  -0.000000  -0.000099   0.005678
    20  C   -0.063873   0.445382  -0.038130   0.002678  -0.043352  -0.022194
    21  O   -0.000002   0.000025   0.000001   0.000000  -0.000000   0.000002
    22  H   -0.000000  -0.000013   0.000001   0.000000  -0.000000   0.000020
    23  H    0.000000   0.000005  -0.000000   0.000000  -0.000000   0.000004
    24  H   -0.000034  -0.000190   0.000005  -0.000000  -0.000002   0.000017
    25  H    0.000020   0.000021   0.000003  -0.000000  -0.000000   0.000005
    26  H   -0.048336   0.004718  -0.000118  -0.000000   0.000002   0.000003
    27  H    0.329608  -0.027291  -0.006905   0.004798   0.000063  -0.000028
    28  H   -0.000282   0.006278  -0.030222   0.251247  -0.006374   0.000512
    29  H   -0.000099   0.003965  -0.041059  -0.004537   0.349931  -0.027073
    30  H    0.000003   0.000797   0.003057  -0.000048  -0.035191   0.353527
    31  H   -0.000000   0.000002   0.000000   0.000000  -0.000005  -0.000038
    32  H    0.000000   0.000010  -0.000013   0.000000   0.000510  -0.000806
    33  H    0.000000  -0.000000   0.000000  -0.000000   0.000000  -0.000011
    34  H    0.000000   0.000002   0.000000  -0.000000   0.000000  -0.000016
    35  H   -0.000000   0.000000   0.000000   0.000000   0.000000  -0.000000
    36  H   -0.000000   0.000000   0.000000  -0.000000  -0.000000  -0.000001
    37  H    0.000000  -0.000000  -0.000001   0.000000   0.000000   0.000103
    38  H   -0.000006   0.000047   0.000012  -0.000000  -0.000138  -0.000141
    39  H    0.000000  -0.000010  -0.000007  -0.000000   0.000239   0.001524
              13         14         15         16         17         18
     1  O    0.002104   0.003575  -0.000189  -0.000000  -0.000000   0.000000
     2  C    0.002739  -0.006341  -0.000223  -0.000006   0.000002  -0.000000
     3  C   -0.009295  -0.065938   0.007609  -0.000073  -0.000172  -0.000003
     4  C   -0.016201   0.002705  -0.000478   0.000012  -0.000104  -0.000006
     5  C   -0.101094  -0.017050   0.000121   0.000018  -0.000005  -0.000025
     6  C    0.016825  -0.000346   0.000004  -0.000000  -0.000000   0.000002
     7  N    0.011226  -0.000096   0.000001  -0.000000   0.000000   0.000000
     8  C   -0.048905   0.009062  -0.000166   0.000004   0.000000  -0.000050
     9  C   -0.052798  -0.000205  -0.000007   0.000003  -0.000000   0.000005
    10  O    0.000316   0.000001  -0.000000  -0.000000   0.000000   0.000000
    11  C   -0.014874   0.005296   0.000503  -0.000013   0.000001  -0.000101
    12  C    0.485838  -0.055564  -0.005875  -0.001109  -0.000017   0.000095
    13  C    5.065928   0.299678  -0.078169  -0.002474   0.000136   0.001502
    14  C    0.299678   4.794655   0.357219  -0.026416  -0.006236  -0.005965
    15  C   -0.078169   0.357219   5.190426   0.372858  -0.051982  -0.049265
    16  C   -0.002474  -0.026416   0.372858   4.834560   0.384670   0.379128
    17  C    0.000136  -0.006236  -0.051982   0.384670   5.091746  -0.057891
    18  C    0.001502  -0.005965  -0.049265   0.379128  -0.057891   5.104372
    19  N   -0.051759   0.568117  -0.089893  -0.006114   0.001069  -0.000191
    20  C    0.421115  -0.036525   0.003619  -0.000144   0.000057  -0.000713
    21  O   -0.000128   0.000101   0.000001   0.000000   0.000000  -0.000000
    22  H    0.000074  -0.000210  -0.000006  -0.000000   0.000000  -0.000000
    23  H   -0.000301   0.003474  -0.000050   0.000009  -0.000002   0.000000
    24  H    0.001935  -0.000497  -0.000146  -0.000025  -0.000020   0.000001
    25  H   -0.000142  -0.000020   0.000006  -0.000000   0.000001  -0.000000
    26  H   -0.000148   0.000001  -0.000000   0.000000  -0.000000   0.000000
    27  H   -0.000008   0.000002  -0.000000   0.000000   0.000000   0.000000
    28  H   -0.000067  -0.000001   0.000000  -0.000000  -0.000000  -0.000000
    29  H    0.002535  -0.000123   0.000006  -0.000000   0.000000  -0.000001
    30  H   -0.033881  -0.007185   0.002122  -0.000061   0.000000  -0.000254
    31  H    0.005153  -0.030308   0.358769  -0.029495  -0.005369   0.005109
    32  H   -0.003801  -0.032974   0.354467  -0.033977   0.005601  -0.004680
    33  H   -0.000227   0.004833  -0.045332   0.385642  -0.046273  -0.046611
    34  H   -0.000100   0.005914  -0.007623  -0.031145   0.375704  -0.004623
    35  H    0.000005  -0.000811  -0.003436  -0.028951   0.376214   0.004887
    36  H    0.000020   0.000185   0.004852  -0.031679   0.369178  -0.003590
    37  H    0.000136  -0.000014   0.004943  -0.029958  -0.003370   0.371468
    38  H    0.000855   0.003845  -0.006805  -0.031412  -0.004722   0.377588
    39  H    0.000291  -0.000707  -0.002596  -0.030644   0.004945   0.373512
              19         20         21         22         23         24
     1  O   -0.000381  -0.000037  -0.085881   0.222848   0.001079  -0.000049
     2  C   -0.030992  -0.000462   0.556209  -0.009454  -0.045425   0.005723
     3  C    0.265920  -0.002296  -0.073109   0.010441   0.385472  -0.043229
     4  C   -0.043947  -0.058933   0.000527  -0.000246  -0.039121   0.371750
     5  C   -0.004193   0.433865  -0.001028   0.000023   0.005134  -0.030076
     6  C    0.000082   0.017243  -0.000297   0.000004  -0.000128   0.000235
     7  N    0.000003  -0.063873  -0.000002  -0.000000   0.000000  -0.000034
     8  C   -0.000008   0.445382   0.000025  -0.000013   0.000005  -0.000190
     9  C   -0.000013  -0.038130   0.000001   0.000001  -0.000000   0.000005
    10  O   -0.000000   0.002678   0.000000   0.000000   0.000000  -0.000000
    11  C   -0.000099  -0.043352  -0.000000  -0.000000  -0.000000  -0.000002
    12  C    0.005678  -0.022194   0.000002   0.000020   0.000004   0.000017
    13  C   -0.051759   0.421115  -0.000128   0.000074  -0.000301   0.001935
    14  C    0.568117  -0.036525   0.000101  -0.000210   0.003474  -0.000497
    15  C   -0.089893   0.003619   0.000001  -0.000006  -0.000050  -0.000146
    16  C   -0.006114  -0.000144   0.000000  -0.000000   0.000009  -0.000025
    17  C    0.001069   0.000057   0.000000   0.000000  -0.000002  -0.000020
    18  C   -0.000191  -0.000713  -0.000000  -0.000000   0.000000   0.000001
    19  N    6.868374  -0.013764   0.002349  -0.000362  -0.052150  -0.003596
    20  C   -0.013764   4.954129  -0.001024   0.000011   0.000448  -0.003939
    21  O    0.002349  -0.001024   8.055762   0.010019   0.000141   0.000122
    22  H   -0.000362   0.000011   0.010019   0.355253  -0.000398   0.000005
    23  H   -0.052150   0.000448   0.000141  -0.000398   0.567264  -0.003512
    24  H   -0.003596  -0.003939   0.000122   0.000005  -0.003512   0.572001
    25  H    0.004131   0.003990   0.007359  -0.000018  -0.001213  -0.032586
    26  H    0.000001   0.003320  -0.000009   0.000000   0.000002   0.000033
    27  H   -0.000000   0.006726  -0.000000   0.000000  -0.000000   0.000002
    28  H    0.000000  -0.000039   0.000000   0.000000   0.000000   0.000000
    29  H    0.000001   0.001025  -0.000000  -0.000000   0.000000  -0.000000
    30  H    0.000036   0.003494   0.000000  -0.000001   0.000000   0.000000
    31  H    0.004633  -0.000073  -0.000000   0.000001  -0.000056   0.000009
    32  H    0.003714   0.000207  -0.000000   0.000001   0.000001   0.000002
    33  H   -0.000065   0.000005  -0.000000   0.000000  -0.000000   0.000000
    34  H    0.002927   0.000077  -0.000000   0.000000  -0.000041   0.001745
    35  H    0.001117  -0.000001  -0.000000   0.000000  -0.000004  -0.000002
    36  H    0.000157  -0.000001  -0.000000   0.000000  -0.000001  -0.000001
    37  H   -0.000005  -0.000002   0.000000  -0.000000   0.000000   0.000000
    38  H    0.000069   0.001303   0.000000   0.000000  -0.000000   0.000038
    39  H    0.000001  -0.000009  -0.000000   0.000000   0.000000  -0.000000
              25         26         27         28         29         30
     1  O    0.000135   0.000000  -0.000000  -0.000000   0.000000  -0.000001
     2  C   -0.005325  -0.000009   0.000000   0.000000  -0.000000  -0.000000
     3  C   -0.020796   0.000047   0.000002   0.000000  -0.000000  -0.000001
     4  C    0.350407  -0.002614  -0.000079  -0.000000   0.000000  -0.000001
     5  C   -0.029170  -0.026100   0.003279   0.000008   0.000009  -0.000156
     6  C   -0.005974   0.368820  -0.027969   0.000003   0.000001   0.000005
     7  N    0.000020  -0.048336   0.329608  -0.000282  -0.000099   0.000003
     8  C    0.000021   0.004718  -0.027291   0.006278   0.003965   0.000797
     9  C    0.000003  -0.000118  -0.006905  -0.030222  -0.041059   0.003057
    10  O   -0.000000  -0.000000   0.004798   0.251247  -0.004537  -0.000048
    11  C   -0.000000   0.000002   0.000063  -0.006374   0.349931  -0.035191
    12  C    0.000005   0.000003  -0.000028   0.000512  -0.027073   0.353527
    13  C   -0.000142  -0.000148  -0.000008  -0.000067   0.002535  -0.033881
    14  C   -0.000020   0.000001   0.000002  -0.000001  -0.000123  -0.007185
    15  C    0.000006  -0.000000  -0.000000   0.000000   0.000006   0.002122
    16  C   -0.000000   0.000000   0.000000  -0.000000  -0.000000  -0.000061
    17  C    0.000001  -0.000000   0.000000  -0.000000   0.000000   0.000000
    18  C   -0.000000   0.000000   0.000000  -0.000000  -0.000001  -0.000254
    19  N    0.004131   0.000001  -0.000000   0.000000   0.000001   0.000036
    20  C    0.003990   0.003320   0.006726  -0.000039   0.001025   0.003494
    21  O    0.007359  -0.000009  -0.000000   0.000000  -0.000000   0.000000
    22  H   -0.000018   0.000000   0.000000   0.000000  -0.000000  -0.000001
    23  H   -0.001213   0.000002  -0.000000   0.000000   0.000000   0.000000
    24  H   -0.032586   0.000033   0.000002   0.000000  -0.000000   0.000000
    25  H    0.562654   0.002662  -0.000005   0.000000   0.000000  -0.000000
    26  H    0.002662   0.538200  -0.001802  -0.000000  -0.000000  -0.000000
    27  H   -0.000005  -0.001802   0.374784  -0.000195   0.000000  -0.000000
    28  H    0.000000  -0.000000  -0.000195   0.354522   0.006279  -0.000009
    29  H    0.000000  -0.000000   0.000000   0.006279   0.592920  -0.005100
    30  H   -0.000000  -0.000000  -0.000000  -0.000009  -0.005100   0.574073
    31  H   -0.000000   0.000000   0.000000  -0.000000  -0.000000  -0.000156
    32  H   -0.000000  -0.000000   0.000000  -0.000000   0.000002   0.004782
    33  H    0.000000  -0.000000  -0.000000   0.000000   0.000000   0.000025
    34  H    0.000002  -0.000000   0.000000  -0.000000   0.000000  -0.000000
    35  H   -0.000000   0.000000   0.000000  -0.000000  -0.000000  -0.000000
    36  H   -0.000000  -0.000000   0.000000  -0.000000  -0.000000  -0.000000
    37  H   -0.000000   0.000000   0.000000  -0.000000   0.000000  -0.000002
    38  H    0.000001   0.000000  -0.000000   0.000000  -0.000000   0.000041
    39  H   -0.000000  -0.000000  -0.000000  -0.000000   0.000003   0.000487
              31         32         33         34         35         36
     1  O    0.000038   0.000004   0.000000  -0.000000  -0.000000   0.000000
     2  C    0.000024   0.000010   0.000000   0.000018   0.000000   0.000000
     3  C    0.000020  -0.000214   0.000007   0.000139   0.000016  -0.000002
     4  C    0.000028   0.000007  -0.000001  -0.000018   0.000002   0.000001
     5  C   -0.000010  -0.000004  -0.000000  -0.000079  -0.000000   0.000000
     6  C   -0.000000  -0.000000   0.000000  -0.000001   0.000000   0.000000
     7  N   -0.000000   0.000000   0.000000   0.000000  -0.000000  -0.000000
     8  C    0.000002   0.000010  -0.000000   0.000002   0.000000   0.000000
     9  C    0.000000  -0.000013   0.000000   0.000000   0.000000   0.000000
    10  O    0.000000   0.000000  -0.000000  -0.000000   0.000000  -0.000000
    11  C   -0.000005   0.000510   0.000000   0.000000   0.000000  -0.000000
    12  C   -0.000038  -0.000806  -0.000011  -0.000016  -0.000000  -0.000001
    13  C    0.005153  -0.003801  -0.000227  -0.000100   0.000005   0.000020
    14  C   -0.030308  -0.032974   0.004833   0.005914  -0.000811   0.000185
    15  C    0.358769   0.354467  -0.045332  -0.007623  -0.003436   0.004852
    16  C   -0.029495  -0.033977   0.385642  -0.031145  -0.028951  -0.031679
    17  C   -0.005369   0.005601  -0.046273   0.375704   0.376214   0.369178
    18  C    0.005109  -0.004680  -0.046611  -0.004623   0.004887  -0.003590
    19  N    0.004633   0.003714  -0.000065   0.002927   0.001117   0.000157
    20  C   -0.000073   0.000207   0.000005   0.000077  -0.000001  -0.000001
    21  O   -0.000000  -0.000000  -0.000000  -0.000000  -0.000000  -0.000000
    22  H    0.000001   0.000001   0.000000   0.000000   0.000000   0.000000
    23  H   -0.000056   0.000001  -0.000000  -0.000041  -0.000004  -0.000001
    24  H    0.000009   0.000002   0.000000   0.001745  -0.000002  -0.000001
    25  H   -0.000000  -0.000000   0.000000   0.000002  -0.000000  -0.000000
    26  H    0.000000  -0.000000  -0.000000  -0.000000   0.000000  -0.000000
    27  H    0.000000   0.000000  -0.000000   0.000000   0.000000   0.000000
    28  H   -0.000000  -0.000000   0.000000  -0.000000  -0.000000  -0.000000
    29  H   -0.000000   0.000002   0.000000   0.000000  -0.000000  -0.000000
    30  H   -0.000156   0.004782   0.000025  -0.000000  -0.000000  -0.000000
    31  H    0.562427  -0.030602  -0.004759  -0.000089   0.004025   0.000101
    32  H   -0.030602   0.607992  -0.005131  -0.000005   0.000017  -0.000132
    33  H   -0.004759  -0.005131   0.638176   0.005484  -0.003137  -0.004472
    34  H   -0.000089  -0.000005   0.005484   0.559699  -0.028637  -0.031299
    35  H    0.004025   0.000017  -0.003137  -0.028637   0.562187  -0.029659
    36  H    0.000101  -0.000132  -0.004472  -0.031299  -0.029659   0.591297
    37  H   -0.000121  -0.000045  -0.004722  -0.000368  -0.000035   0.003768
    38  H   -0.000062  -0.000157   0.005478   0.004436  -0.000025  -0.000338
    39  H   -0.000016   0.002931  -0.003135  -0.000027  -0.000163  -0.000026
              37         38         39
     1  O    0.000000   0.000000  -0.000000
     2  C   -0.000000   0.000001   0.000000
     3  C   -0.000000   0.000002  -0.000000
     4  C    0.000000   0.000010   0.000000
     5  C   -0.000001   0.000073  -0.000001
     6  C   -0.000000  -0.000004   0.000000
     7  N    0.000000  -0.000006   0.000000
     8  C   -0.000000   0.000047  -0.000010
     9  C   -0.000001   0.000012  -0.000007
    10  O    0.000000  -0.000000  -0.000000
    11  C    0.000000  -0.000138   0.000239
    12  C    0.000103  -0.000141   0.001524
    13  C    0.000136   0.000855   0.000291
    14  C   -0.000014   0.003845  -0.000707
    15  C    0.004943  -0.006805  -0.002596
    16  C   -0.029958  -0.031412  -0.030644
    17  C   -0.003370  -0.004722   0.004945
    18  C    0.371468   0.377588   0.373512
    19  N   -0.000005   0.000069   0.000001
    20  C   -0.000002   0.001303  -0.000009
    21  O    0.000000   0.000000  -0.000000
    22  H   -0.000000   0.000000   0.000000
    23  H    0.000000  -0.000000   0.000000
    24  H    0.000000   0.000038  -0.000000
    25  H   -0.000000   0.000001  -0.000000
    26  H    0.000000   0.000000  -0.000000
    27  H    0.000000  -0.000000  -0.000000
    28  H   -0.000000   0.000000  -0.000000
    29  H    0.000000  -0.000000   0.000003
    30  H   -0.000002   0.000041   0.000487
    31  H   -0.000121  -0.000062  -0.000016
    32  H   -0.000045  -0.000157   0.002931
    33  H   -0.004722   0.005478  -0.003135
    34  H   -0.000368   0.004436  -0.000027
    35  H   -0.000035  -0.000025  -0.000163
    36  H    0.003768  -0.000338  -0.000026
    37  H    0.580920  -0.030491  -0.029459
    38  H   -0.030491   0.560914  -0.031153
    39  H   -0.029459  -0.031153   0.578388
 Mulliken charges:
               1
     1  O   -0.564144
     2  C    0.592383
     3  C   -0.102443
     4  C   -0.335941
     5  C    0.063672
     6  C    0.002075
     7  N   -0.689763
     8  C    0.285872
     9  C    0.320074
    10  O   -0.661577
    11  C   -0.219676
    12  C   -0.212865
    13  C    0.095966
    14  C    0.234869
    15  C   -0.315285
    16  C   -0.073207
    17  C   -0.433161
    18  C   -0.443702
    19  N   -0.430847
    20  C   -0.013184
    21  O   -0.471139
    22  H    0.412007
    23  H    0.179366
    24  H    0.164281
    25  H    0.163852
    26  H    0.161327
    27  H    0.345018
    28  H    0.418341
    29  H    0.121318
    30  H    0.139598
    31  H    0.160818
    32  H    0.132285
    33  H    0.124223
    34  H    0.147924
    35  H    0.146390
    36  H    0.131643
    37  H    0.137256
    38  H    0.150745
    39  H    0.135634
 Sum of Mulliken charges =  -0.00000
 Mulliken charges with hydrogens summed into heavy atoms:
               1
     1  O   -0.152136
     2  C    0.592383
     3  C    0.076923
     4  C   -0.007808
     5  C    0.063672
     6  C    0.163402
     7  N   -0.344745
     8  C    0.285872
     9  C    0.320074
    10  O   -0.243237
    11  C   -0.098359
    12  C   -0.073267
    13  C    0.095966
    14  C    0.234869
    15  C   -0.022182
    16  C    0.051016
    17  C   -0.007205
    18  C   -0.020068
    19  N   -0.430847
    20  C   -0.013184
    21  O   -0.471139
 Electronic spatial extent (au):  <R**2>=           5522.0374
 Charge=             -0.0000 electrons
 Dipole moment (field-independent basis, Debye):
    X=              2.8204    Y=             -3.1032    Z=             -0.3265  Tot=              4.2061
 Quadrupole moment (field-independent basis, Debye-Ang):
   XX=           -113.8506   YY=           -119.7516   ZZ=           -112.5287
   XY=             -6.2044   XZ=              0.8679   YZ=              6.8426
 Traceless Quadrupole moment (field-independent basis, Debye-Ang):
   XX=              1.5264   YY=             -4.3746   ZZ=              2.8482
   XY=             -6.2044   XZ=              0.8679   YZ=              6.8426
 Octapole moment (field-independent basis, Debye-Ang**2):
  XXX=             76.2211  YYY=            -44.0849  ZZZ=            -23.4200  XYY=             18.8565
  XXY=            -29.0806  XXZ=              7.4180  XZZ=             32.3535  YZZ=             18.9782
  YYZ=            -29.3042  XYZ=             12.3554
 Hexadecapole moment (field-independent basis, Debye-Ang**3):
 XXXX=          -3361.1292 YYYY=          -2637.0746 ZZZZ=           -965.3537 XXXY=            -80.7189
 XXXZ=             73.2977 YYYX=           -244.3229 YYYZ=             43.4100 ZZZX=              1.1757
 ZZZY=            -53.8866 XXYY=           -955.2806 XXZZ=           -687.1814 YYZZ=           -512.7716
 XXYZ=             56.2745 YYXZ=            -66.5334 ZZXY=             11.2331
 N-N= 1.739457093959D+03 E-N=-5.703347493668D+03  KE= 9.464823822182D+02
 1\1\GINC-C091\SP\RCAM-B3LYP TD-FC\6-31G(d)\C16H18N2O3\XYCAO\28-Dec-202
 3\0\\# td=(nstates=20,root=20) cam-b3lyp/6-31g(d)\\Title\\0,1\O,0,-0.0
 48912,2.337898,-2.115115\C,0,0.191824,2.797932,-0.868771\C,0,-0.801379
 ,2.295686,0.1862\C,0,-0.052264,1.968661,1.503334\C,0,1.00765,0.935707,
 1.285896\C,0,2.263849,0.874017,1.840201\N,0,2.953006,-0.201661,1.32061
 \C,0,2.151474,-0.834194,0.399249\C,0,2.426134,-1.941291,-0.408702\O,0,
 3.659969,-2.52173,-0.291734\C,0,1.42437,-2.361794,-1.275892\C,0,0.1799
 97,-1.707014,-1.313851\C,0,-0.12261,-0.596189,-0.517454\C,0,-1.458341,
 0.065309,-0.557516\C,0,-2.672036,-0.766323,-0.968524\C,0,-3.393317,-1.
 522607,0.184817\C,0,-4.001113,-0.566936,1.221323\C,0,-2.519069,-2.5876
 43,0.86341\N,0,-1.747138,1.282889,-0.251665\C,0,0.91209,-0.149965,0.35
 1759\O,0,1.080328,3.586496,-0.625373\H,0,0.627683,2.756447,-2.68086\H,
 0,-1.409021,3.188981,0.395066\H,0,-0.809214,1.634514,2.224759\H,0,0.38
 8308,2.890278,1.896673\H,0,2.730053,1.53019,2.562303\H,0,3.901056,-0.4
 65657,1.537103\H,0,3.714933,-3.26966,-0.906973\H,0,1.602642,-3.212583,
 -1.930642\H,0,-0.556591,-2.087951,-2.010995\H,0,-3.387098,-0.069475,-1
 .415483\H,0,-2.407959,-1.497049,-1.739811\H,0,-4.228206,-2.048656,-0.3
 02498\H,0,-3.224417,-0.015585,1.761569\H,0,-4.654795,0.173543,0.74749\
 H,0,-4.592854,-1.126036,1.956613\H,0,-3.109996,-3.162344,1.587056\H,0,
 -1.680056,-2.13576,1.404411\H,0,-2.100166,-3.293247,0.136506\\Version=
 ES64L-G16RevA.03\State=1-A\HF=-955.2437004\RMSD=3.234e-09\PG=C01 [X(C1
 6H18N2O3)]\\@


 LIFE CAN ONLY BE UNDERSTOOD BACKWARD, BUT MUST
 BE LIVED FORWARD. -- KIRKEGAARD
 Job cpu time:       0 days  1 hours 11 minutes 42.4 seconds.
 Elapsed time:       0 days  0 hours  2 minutes 15.0 seconds.
 File lengths (MBytes):  RWF=   1484 Int=      0 D2E=      0 Chk=     94 Scr=      1
 Normal termination of Gaussian 16 at Thu Dec 28 13:32:50 2023.
