 Entering Gaussian System, Link 0=g16
 Input=molecule_13_1_ECD.com
 Output=molecule_13_1_ECD.log
 Initial command:
 /share/apps/g16/A03/l1.exe "/tmp/954261.tmpdir/scr/Gau-41634.inp" -scrdir="/tmp/954261.tmpdir/scr/"
 Entering Link 1 = /share/apps/g16/A03/l1.exe PID=     41635.
  
 Copyright (c) 1988,1990,1992,1993,1995,1998,2003,2009,2016,
            Gaussian, Inc.  All Rights Reserved.
  
 This is part of the Gaussian(R) 16 program.  It is based on
 the Gaussian(R) 09 system (copyright 2009, Gaussian, Inc.),
 the Gaussian(R) 03 system (copyright 2003, Gaussian, Inc.),
 the Gaussian(R) 98 system (copyright 1998, Gaussian, Inc.),
 the Gaussian(R) 94 system (copyright 1995, Gaussian, Inc.),
 the Gaussian 92(TM) system (copyright 1992, Gaussian, Inc.),
 the Gaussian 90(TM) system (copyright 1990, Gaussian, Inc.),
 the Gaussian 88(TM) system (copyright 1988, Gaussian, Inc.),
 the Gaussian 86(TM) system (copyright 1986, Carnegie Mellon
 University), and the Gaussian 82(TM) system (copyright 1983,
 Carnegie Mellon University). Gaussian is a federally registered
 trademark of Gaussian, Inc.
  
 This software contains proprietary and confidential information,
 including trade secrets, belonging to Gaussian, Inc.
  
 This software is provided under written license and may be
 used, copied, transmitted, or stored only in accord with that
 written license.
  
 The following legend is applicable only to US Government
 contracts under FAR:
  
                    RESTRICTED RIGHTS LEGEND
  
 Use, reproduction and disclosure by the US Government is
 subject to restrictions as set forth in subparagraphs (a)
 and (c) of the Commercial Computer Software - Restricted
 Rights clause in FAR 52.227-19.
  
 Gaussian, Inc.
 340 Quinnipiac St., Bldg. 40, Wallingford CT 06492
  
  
 ---------------------------------------------------------------
 Warning -- This program may not be used in any manner that
 competes with the business of Gaussian, Inc. or will provide
 assistance to any competitor of Gaussian, Inc.  The licensee
 of this program is prohibited from giving any competitor of
 Gaussian, Inc. access to this program.  By using this program,
 the user acknowledges that Gaussian, Inc. is engaged in the
 business of creating and licensing software in the field of
 computational chemistry and represents and warrants to the
 licensee that it is not a competitor of Gaussian, Inc. and that
 it will not use this program in any manner prohibited above.
 ---------------------------------------------------------------
  

 Cite this work as:
 Gaussian 16, Revision A.03,
 M. J. Frisch, G. W. Trucks, H. B. Schlegel, G. E. Scuseria, 
 M. A. Robb, J. R. Cheeseman, G. Scalmani, V. Barone, 
 G. A. Petersson, H. Nakatsuji, X. Li, M. Caricato, A. V. Marenich, 
 J. Bloino, B. G. Janesko, R. Gomperts, B. Mennucci, H. P. Hratchian, 
 J. V. Ortiz, A. F. Izmaylov, J. L. Sonnenberg, D. Williams-Young, 
 F. Ding, F. Lipparini, F. Egidi, J. Goings, B. Peng, A. Petrone, 
 T. Henderson, D. Ranasinghe, V. G. Zakrzewski, J. Gao, N. Rega, 
 G. Zheng, W. Liang, M. Hada, M. Ehara, K. Toyota, R. Fukuda, 
 J. Hasegawa, M. Ishida, T. Nakajima, Y. Honda, O. Kitao, H. Nakai, 
 T. Vreven, K. Throssell, J. A. Montgomery, Jr., J. E. Peralta, 
 F. Ogliaro, M. J. Bearpark, J. J. Heyd, E. N. Brothers, K. N. Kudin, 
 V. N. Staroverov, T. A. Keith, R. Kobayashi, J. Normand, 
 K. Raghavachari, A. P. Rendell, J. C. Burant, S. S. Iyengar, 
 J. Tomasi, M. Cossi, J. M. Millam, M. Klene, C. Adamo, R. Cammi, 
 J. W. Ochterski, R. L. Martin, K. Morokuma, O. Farkas, 
 J. B. Foresman, and D. J. Fox, Gaussian, Inc., Wallingford CT, 2016.
 
 ******************************************
 Gaussian 16:  ES64L-G16RevA.03 25-Dec-2016
                28-Dec-2023 
 ******************************************
 %nprocs=32
 Will use up to   32 processors via shared memory.
 %chk=molecule_13_1_ECD.chk
 %mem=10GB
 --------------------------------------------
 # td=(nstates=20,root=20) cam-b3lyp/6-31g(d)
 --------------------------------------------
 1/38=1,172=1/1;
 2/12=2,17=6,18=5,40=1/2;
 3/5=1,6=6,7=1,11=9,25=1,30=1,74=-40/1,2,3,8;
 4//1;
 5/5=2,38=5/2;
 8/6=1,10=2,107=20,108=20/1;
 9/8=20,41=20,42=1,70=2/14;
 6/7=2,8=2,9=2,10=2/1;
 99/5=1,9=1/99;
 -----
 Title
 -----
 Symbolic Z-matrix:
 Charge =  0 Multiplicity = 1
 O                    -0.03053   1.49916   0.73828 
 C                     1.14322   1.2276    0.4346 
 C                     2.13484   2.29077   0.2529 
 O                     1.77887   3.59823   0.47159 
 C                     0.72795   4.11729  -0.35377 
 C                     3.44682   2.02329  -0.03949 
 C                     4.50606   3.07526  -0.19612 
 N                     3.8506    0.722    -0.17095 
 C                     2.99981  -0.35181  -0.04187 
 C                     1.62917  -0.16048   0.23829 
 C                     0.79475  -1.31519   0.38091 
 C                    -0.71201  -1.2241    0.65448 
 O                    -1.21735  -2.46779   1.16196 
 C                    -1.48995  -0.7766   -0.6004 
 C                    -2.92118  -0.27118  -0.34922 
 C                    -3.93421  -1.32317   0.12971 
 C                    -5.35289  -0.77346   0.36005 
 C                    -6.07892  -0.30996  -0.91234 
 C                    -7.54697   0.09404  -0.694 
 C                    -7.73918   1.33927   0.18026 
 C                     1.37308  -2.56755   0.25233 
 C                     2.73852  -2.74916  -0.0363 
 C                     3.55414  -1.64807  -0.19114 
 O                     4.89852  -1.66202  -0.46983 
 C                     5.53279  -2.92525  -0.60807 
 H                     0.63136   5.17076  -0.08031 
 H                     0.99658   4.04307  -1.41692 
 H                    -0.2085    3.58937  -0.16759 
 H                     5.26084   2.99356   0.59691 
 H                     5.02293   2.97421  -1.15904 
 H                     4.05474   4.06512  -0.13695 
 H                     4.82078   0.51031  -0.36069 
 H                    -0.87853  -0.4951    1.44807 
 H                    -1.50639  -2.99752   0.40284 
 H                    -1.49801  -1.61897  -1.31429 
 H                    -0.92769   0.02601  -1.08404 
 H                    -2.86877   0.54807   0.38087 
 H                    -3.28023   0.17804  -1.28495 
 H                    -3.57118  -1.77179   1.06033 
 H                    -3.98398  -2.14079  -0.60833 
 H                    -5.95803  -1.55696   0.83967 
 H                    -5.29897   0.05248   1.08284 
 H                    -6.04414  -1.1239   -1.65168 
 H                    -5.54273   0.53571  -1.36527 
 H                    -8.01214   0.2727   -1.67318 
 H                    -8.09131  -0.75158  -0.24894 
 H                    -7.36541   1.18526   1.19856 
 H                    -7.20685   2.20181  -0.2405 
 H                    -8.79929   1.60792   0.25622 
 H                     0.75452  -3.44272   0.41067 
 H                     3.1358   -3.75408  -0.12685 
 H                     5.45742  -3.51116   0.3167 
 H                     5.09957  -3.49889  -1.43724 
 H                     6.58227  -2.71478  -0.82107 
 
 Stoichiometry    C20H29NO4
 Framework group  C1[X(C20H29NO4)]
 Deg. of freedom   156
 Full point group                 C1      NOp   1
 Largest Abelian subgroup         C1      NOp   1
 Largest concise Abelian subgroup C1      NOp   1
                         Standard orientation:                         
 ---------------------------------------------------------------------
 Center     Atomic      Atomic             Coordinates (Angstroms)
 Number     Number       Type             X           Y           Z
 ---------------------------------------------------------------------
      1          8           0        0.030533    1.499158   -0.738279
      2          6           0       -1.143223    1.227598   -0.434602
      3          6           0       -2.134836    2.290767   -0.252896
      4          8           0       -1.778872    3.598231   -0.471589
      5          6           0       -0.727952    4.117293    0.353767
      6          6           0       -3.446819    2.023292    0.039487
      7          6           0       -4.506064    3.075262    0.196121
      8          7           0       -3.850596    0.721999    0.170954
      9          6           0       -2.999812   -0.351812    0.041869
     10          6           0       -1.629170   -0.160480   -0.238291
     11          6           0       -0.794745   -1.315188   -0.380909
     12          6           0        0.712011   -1.224104   -0.654477
     13          8           0        1.217353   -2.467789   -1.161961
     14          6           0        1.489946   -0.776603    0.600398
     15          6           0        2.921178   -0.271183    0.349220
     16          6           0        3.934207   -1.323175   -0.129706
     17          6           0        5.352889   -0.773455   -0.360049
     18          6           0        6.078919   -0.309955    0.912341
     19          6           0        7.546971    0.094037    0.693995
     20          6           0        7.739179    1.339274   -0.180259
     21          6           0       -1.373078   -2.567553   -0.252328
     22          6           0       -2.738518   -2.749158    0.036297
     23          6           0       -3.554138   -1.648065    0.191140
     24          8           0       -4.898524   -1.662023    0.469829
     25          6           0       -5.532791   -2.925250    0.608073
     26          1           0       -0.631362    5.170763    0.080313
     27          1           0       -0.996577    4.043071    1.416918
     28          1           0        0.208499    3.589369    0.167586
     29          1           0       -5.260845    2.993559   -0.596905
     30          1           0       -5.022932    2.974214    1.159036
     31          1           0       -4.054739    4.065116    0.136951
     32          1           0       -4.820782    0.510314    0.360690
     33          1           0        0.878527   -0.495103   -1.448066
     34          1           0        1.506387   -2.997522   -0.402835
     35          1           0        1.498005   -1.618973    1.314289
     36          1           0        0.927690    0.026005    1.084043
     37          1           0        2.868771    0.548065   -0.380868
     38          1           0        3.280230    0.178039    1.284950
     39          1           0        3.571177   -1.771789   -1.060327
     40          1           0        3.983976   -2.140789    0.608331
     41          1           0        5.958027   -1.556956   -0.839666
     42          1           0        5.298969    0.052475   -1.082837
     43          1           0        6.044141   -1.123896    1.651676
     44          1           0        5.542734    0.535707    1.365269
     45          1           0        8.012137    0.272698    1.673181
     46          1           0        8.091315   -0.751575    0.248941
     47          1           0        7.365406    1.185261   -1.198563
     48          1           0        7.206853    2.201813    0.240499
     49          1           0        8.799290    1.607917   -0.256219
     50          1           0       -0.754519   -3.442722   -0.410668
     51          1           0       -3.135802   -3.754084    0.126846
     52          1           0       -5.457416   -3.511157   -0.316704
     53          1           0       -5.099569   -3.498893    1.437243
     54          1           0       -6.582269   -2.714779    0.821070
 ---------------------------------------------------------------------
 Rotational constants (GHZ):           0.3296706           0.0966915           0.0771861
 Standard basis: 6-31G(d) (6D, 7F)
 There are   433 symmetry adapted cartesian basis functions of A   symmetry.
 There are   433 symmetry adapted basis functions of A   symmetry.
   433 basis functions,   816 primitive gaussians,   433 cartesian basis functions
    94 alpha electrons       94 beta electrons
       nuclear repulsion energy      2222.6025379862 Hartrees.
 NAtoms=   54 NActive=   54 NUniq=   54 SFac= 1.00D+00 NAtFMM=   60 NAOKFM=F Big=F
 Integral buffers will be    131072 words long.
 Raffenetti 1 integral format.
 Two-electron integral symmetry is turned on.
 One-electron integrals computed using PRISM.
 NBasis=   433 RedAO= T EigKep=  2.60D-04  NBF=   433
 NBsUse=   433 1.00D-06 EigRej= -1.00D+00 NBFU=   433
 ExpMin= 1.61D-01 ExpMax= 5.48D+03 ExpMxC= 8.25D+02 IAcc=3 IRadAn=         5 AccDes= 0.00D+00
 Harris functional with IExCor=20419 and IRadAn=       5 diagonalized for initial guess.
 HarFok:  IExCor=20419 AccDes= 0.00D+00 IRadAn=         5 IDoV= 1 UseB2=F ITyADJ=14
 ICtDFT=  3500011 ScaDFX=  1.000000  1.000000  1.000000  1.000000
 FoFCou: FMM=F IPFlag=           0 FMFlag=      100000 FMFlg1=           0
         NFxFlg=           0 DoJE=T BraDBF=F KetDBF=T FulRan=T
         wScrn=  0.000000 ICntrl=       500 IOpCl=  0 I1Cent=   200000004 NGrid=           0
         NMat0=    1 NMatS0=      1 NMatT0=    0 NMatD0=    1 NMtDS0=    0 NMtDT0=    0
 Petite list used in FoFCou.
 Requested convergence on RMS density matrix=1.00D-08 within 128 cycles.
 Requested convergence on MAX density matrix=1.00D-06.
 Requested convergence on             energy=1.00D-06.
 No special actions if energy rises.
 Integral accuracy reduced to 1.0D-05 until final iterations.
 Initial convergence to 1.0D-05 achieved.  Increase integral accuracy.
 SCF Done:  E(RCAM-B3LYP) =  -1134.64886436     A.U. after   16 cycles
            NFock= 16  Conv=0.56D-08     -V/T= 2.0094
 DoSCS=F DFT=T ScalE2(SS,OS)=  1.000000  1.000000
 ExpMin= 1.61D-01 ExpMax= 5.48D+03 ExpMxC= 8.25D+02 IAcc=3 IRadAn=         5 AccDes= 0.00D+00
 HarFok:  IExCor=  205 AccDes= 0.00D+00 IRadAn=         5 IDoV=-2 UseB2=F ITyADJ=14
 ICtDFT= 12500011 ScaDFX=  1.000000  1.000000  1.000000  1.000000
 GSVD:  LWork=        -825 too small for GESVD, short by        3500 words or        3500 for optimal perf.
 Range of M.O.s used for correlation:    26   433
 NBasis=   433 NAE=    94 NBE=    94 NFC=    25 NFV=     0
 NROrb=    408 NOA=    69 NOB=    69 NVA=   339 NVB=   339
 Orbital symmetries:
       Occupied  (A) (A) (A) (A) (A) (A) (A) (A) (A) (A) (A) (A)
                 (A) (A) (A) (A) (A) (A) (A) (A) (A) (A) (A) (A)
                 (A) (A) (A) (A) (A) (A) (A) (A) (A) (A) (A) (A)
                 (A) (A) (A) (A) (A) (A) (A) (A) (A) (A) (A) (A)
                 (A) (A) (A) (A) (A) (A) (A) (A) (A) (A) (A) (A)
                 (A) (A) (A) (A) (A) (A) (A) (A) (A) (A) (A) (A)
                 (A) (A) (A) (A) (A) (A) (A) (A) (A) (A) (A) (A)
                 (A) (A) (A) (A) (A) (A) (A) (A) (A) (A)
       Virtual   (A) (A) (A) (A) (A) (A) (A) (A) (A) (A) (A) (A)
                 (A) (A) (A) (A) (A) (A) (A) (A) (A) (A) (A) (A)
                 (A) (A) (A) (A) (A) (A) (A) (A) (A) (A) (A) (A)
                 (A) (A) (A) (A) (A) (A) (A) (A) (A) (A) (A) (A)
                 (A) (A) (A) (A) (A) (A) (A) (A) (A) (A) (A) (A)
                 (A) (A) (A) (A) (A) (A) (A) (A) (A) (A) (A) (A)
                 (A) (A) (A) (A) (A) (A) (A) (A) (A) (A) (A) (A)
                 (A) (A) (A) (A) (A) (A) (A) (A) (A) (A) (A) (A)
                 (A) (A) (A) (A) (A) (A) (A) (A) (A) (A) (A) (A)
                 (A) (A) (A) (A) (A) (A) (A) (A) (A) (A) (A) (A)
                 (A) (A) (A) (A) (A) (A) (A) (A) (A) (A) (A) (A)
                 (A) (A) (A) (A) (A) (A) (A) (A) (A) (A) (A) (A)
                 (A) (A) (A) (A) (A) (A) (A) (A) (A) (A) (A) (A)
                 (A) (A) (A) (A) (A) (A) (A) (A) (A) (A) (A) (A)
                 (A) (A) (A) (A) (A) (A) (A) (A) (A) (A) (A) (A)
                 (A) (A) (A) (A) (A) (A) (A) (A) (A) (A) (A) (A)
                 (A) (A) (A) (A) (A) (A) (A) (A) (A) (A) (A) (A)
                 (A) (A) (A) (A) (A) (A) (A) (A) (A) (A) (A) (A)
                 (A) (A) (A) (A) (A) (A) (A) (A) (A) (A) (A) (A)
                 (A) (A) (A) (A) (A) (A) (A) (A) (A) (A) (A) (A)
                 (A) (A) (A) (A) (A) (A) (A) (A) (A) (A) (A) (A)
                 (A) (A) (A) (A) (A) (A) (A) (A) (A) (A) (A) (A)
                 (A) (A) (A) (A) (A) (A) (A) (A) (A) (A) (A) (A)
                 (A) (A) (A) (A) (A) (A) (A) (A) (A) (A) (A) (A)
                 (A) (A) (A) (A) (A) (A) (A) (A) (A) (A) (A) (A)
                 (A) (A) (A) (A) (A) (A) (A) (A) (A) (A) (A) (A)
                 (A) (A) (A) (A) (A) (A) (A) (A) (A) (A) (A) (A)
                 (A) (A) (A) (A) (A) (A) (A) (A) (A) (A) (A) (A)
                 (A) (A) (A)
    80 initial guesses have been made.
 Convergence on wavefunction:    0.001000000000000
 Iteration     1 Dimension    80 NMult     0 NNew     80
 CISAX will form    80 AO SS matrices at one time.
 New state      1 was old state      3
 New state      2 was old state      1
 New state      3 was old state      2
 New state      4 was old state      7
 New state      5 was old state      4
 New state      6 was old state      8
 New state      7 was old state      5
 New state      8 was old state      9
 New state      9 was old state     11
 New state     11 was old state     12
 New state     12 was old state     15
 New state     13 was old state     16
 New state     14 was old state     13
 New state     15 was old state     14
 New state     16 was old state     23
 New state     17 was old state     19
 New state     18 was old state     20
 New state     19 was old state     28
 New state     20 was old state     21
 Iteration     2 Dimension   120 NMult    80 NNew     40
 New state      4 was old state      5
 New state      5 was old state      4
 New state      8 was old state      9
 New state      9 was old state      8
 New state     11 was old state     12
 New state     12 was old state     11
 New state     15 was old state     16
 New state     16 was old state     15
 New state     17 was old state     18
 New state     18 was old state     17
 New state     19 was old state     21
 New state     20 was old state     19
 Iteration     3 Dimension   160 NMult   120 NNew     40
 Iteration     4 Dimension   200 NMult   160 NNew     40
 Iteration     5 Dimension   230 NMult   200 NNew     30
 Iteration     6 Dimension   242 NMult   230 NNew     12
 Iteration     7 Dimension   254 NMult   242 NNew     12
 Iteration     8 Dimension   258 NMult   254 NNew      4
 Iteration     9 Dimension   260 NMult   258 NNew      2
 ***********************************************************************
 Excited states from <AA,BB:AA,BB> singles matrix:
 ***********************************************************************
 
 Ground to excited state transition densities written to RWF  633
 Ground to excited state transition electric dipole moments (Au):
       state          X           Y           Z        Dip. S.      Osc.
         1        -0.0683      0.0288      0.0024      0.0055      0.0006
         2         1.3663     -0.0415     -0.2277      1.9203      0.2029
         3         0.2814      0.8007     -0.0371      0.7218      0.0834
         4         0.0270     -0.1926     -0.0575      0.0411      0.0054
         5         0.0833     -0.7493      0.0354      0.5696      0.0793
         6         0.2944     -1.5134     -0.0343      2.3784      0.3346
         7         0.0052      0.5228     -0.0388      0.2748      0.0405
         8        -0.2243     -1.0855      0.0528      1.2313      0.1835
         9         0.0517     -0.1387      0.0819      0.0286      0.0045
        10         0.7249      0.5969     -0.0720      0.8870      0.1424
        11         0.5578     -0.3705     -0.0771      0.4543      0.0749
        12        -0.4873     -0.1971      0.0653      0.2806      0.0473
        13         0.0573     -0.0106     -0.0030      0.0034      0.0006
        14         0.3283      0.1748     -0.0344      0.1395      0.0246
        15         2.1082      0.0765     -0.2808      4.5292      0.8075
        16        -0.0820      0.5319      0.0438      0.2916      0.0535
        17        -0.5598     -0.2447      0.0395      0.3748      0.0692
        18         0.4604      0.1211     -0.1065      0.2379      0.0449
        19         0.2567      0.1174     -0.0834      0.0866      0.0164
        20         0.0947      0.0074      0.0146      0.0092      0.0018
 Ground to excited state transition velocity dipole moments (Au):
       state          X           Y           Z        Dip. S.      Osc.
         1         0.0084     -0.0035     -0.0008      0.0001      0.0004
         2        -0.2177     -0.0035      0.0384      0.0489      0.2055
         3        -0.0451     -0.1453      0.0074      0.0232      0.0892
         4         0.0029      0.0325      0.0092      0.0012      0.0039
         5        -0.0219      0.1520     -0.0148      0.0238      0.0760
         6        -0.0584      0.3077      0.0130      0.0983      0.3105
         7        -0.0004     -0.0994      0.0085      0.0099      0.0300
         8         0.0508      0.2430     -0.0120      0.0618      0.1842
         9        -0.0148      0.0314     -0.0258      0.0019      0.0053
        10        -0.1753     -0.1435      0.0183      0.0517      0.1431
        11        -0.1372      0.0810      0.0171      0.0257      0.0692
        12         0.1216      0.0485     -0.0162      0.0174      0.0459
        13        -0.0067      0.0049      0.0281      0.0009      0.0022
        14        -0.0793     -0.0455      0.0102      0.0085      0.0213
        15        -0.5412     -0.0136      0.0694      0.2979      0.7426
        16         0.0247     -0.1394     -0.0154      0.0203      0.0491
        17         0.1532      0.0586     -0.0139      0.0271      0.0652
        18        -0.1268     -0.0364      0.0415      0.0191      0.0451
        19        -0.0802     -0.0298      0.0088      0.0074      0.0174
        20        -0.0279     -0.0007     -0.0471      0.0030      0.0069
 Ground to excited state transition magnetic dipole moments (Au):
       state          X           Y           Z
         1        -0.7275     -0.1594      0.0205
         2         0.0128      0.2698     -0.0790
         3         0.0771      0.0497      1.8415
         4         0.0544      0.0830      0.5975
         5         0.0413      0.2260     -1.3888
         6         0.0041     -0.1593     -2.0824
         7         0.0559     -0.0011      0.9447
         8         0.2604     -0.0320      0.2311
         9        -0.0455      0.2268     -0.1299
        10        -0.3884      0.0567      0.2653
        11         0.1907      0.2268     -0.1499
        12        -0.1994     -0.0633      0.0347
        13         0.0102      0.6119      0.0122
        14        -0.0833      0.2807      0.0379
        15        -0.1638      0.5512     -0.5517
        16        -0.2159     -0.1004      0.9188
        17        -0.1998     -0.1271      0.0044
        18         0.2896      0.4368      0.1280
        19        -0.1700     -0.0156     -0.0065
        20        -0.5660     -0.1689      0.2059
 Ground to excited state transition velocity quadrupole moments (Au):
       state          XX          YY          ZZ          XY          XZ          YZ
         1        -0.0409     -0.0346     -0.0010      0.0777      0.0089     -0.0333
         2         1.4231      0.1196     -0.0440      0.0590     -0.1526      0.0320
         3         0.5839     -0.1664      0.0002      0.2234     -0.0684      0.0799
         4         0.0329      0.2548      0.0266     -0.9626      0.0777      0.1910
         5        -0.0564      0.3578      0.0119     -0.3259      0.0161     -0.0762
         6         0.2849      0.1501     -0.0125     -1.4412     -0.0532     -0.0043
         7         0.0559     -0.2149     -0.0168      0.4450     -0.0075      0.0367
         8         0.0801     -0.9429      0.0173     -2.0970      0.0751      0.1250
         9        -0.1821     -0.0003      0.0273     -0.2270     -0.0195      0.0394
        10         1.2734     -0.0087     -0.0116      0.8759     -0.1814     -0.0828
        11         1.2422     -0.2096     -0.0191     -0.6942     -0.0294     -0.0009
        12        -0.8641     -0.0543      0.0397     -0.1220      0.0373     -0.0109
        13        -0.0155     -0.0330      0.0762     -0.0717     -0.3513      0.0006
        14         0.4175      0.1327     -0.0162      0.3558     -0.0975      0.0014
        15         3.5889     -0.0207     -0.0857      0.5866     -0.4044     -0.1473
        16         0.1853      0.5748      0.0398      0.1296      0.0036      0.0222
        17        -0.1182     -1.0152      0.0775     -0.4105      0.0381     -0.0559
        18         1.2337      0.4930      0.0595      0.4384     -0.2126      0.0011
        19         0.4218      0.3036      0.0088      0.1674     -0.0097      0.0597
        20         0.1038     -0.0310      0.0857     -0.0598      0.2758     -0.2724
 <0|del|b> * <b|rxdel|0> + <0|del|b> * <b|delr+rdel|0>
 Rotatory Strengths (R) in cgs (10**-40 erg-esu-cm/Gauss)
       state          XX          YY          ZZ    R(velocity)    E-M Angle
         1         1.1797    -14.8135    -12.3952     -8.6763      145.11
         2        -4.9981    -33.5887      8.3999    -10.0623       96.24
         3        -3.6758     10.1153      5.8081      4.0825       89.39
         4        -5.6997     26.9267      8.6158      9.9476       65.95
         5        96.9805     27.9242     57.9722     60.9590       75.60
         6      -131.2888    -13.9171   -110.4123    -85.2061       96.69
         7        17.7882      6.7090      1.3653      8.6208       85.09
         8        -5.8022    -13.1473     27.4136      2.8214       88.24
         9        25.5309     -3.6389     11.7070     11.1997       13.71
        10       -19.4761    104.9034    104.9588     63.4620       52.99
        11         9.0709    -23.9577    -14.7197     -9.8688      101.22
        12        -4.8434    -39.2991    -33.7959    -25.9795      175.28
        13         4.1869      3.1057      1.6593      2.9840       79.43
        14       -17.6095      4.3338     -2.1656     -5.1471      102.31
        15       -14.0092    118.1882      9.1127     37.7639       84.35
        16        -2.0863    -21.7416      9.7778     -4.6834       92.32
        17        -5.1356    -57.3730    -34.7770    -32.4285      167.87
        18        -0.1265    -62.2268    -55.9616    -39.4383      129.34
        19         1.9906      9.1042     23.8849     11.6599       17.13
        20        -8.0055     13.3080      9.9085      5.0703       79.51
 1/2[<0|r|b>*<b|rxdel|0> + (<0|rxdel|b>*<b|r|0>)*]
 Rotatory Strengths (R) in cgs (10**-40 erg-esu-cm/Gauss)
       state          XX          YY          ZZ     R(length)
         1       -35.1544      3.2502     -0.0348    -10.6463
         2       -12.3918      7.9255    -12.7128     -5.7264
         3       -15.3533    -28.1222     48.2988      1.6078
         4        -1.0386     11.3108     24.2791     11.5171
         5        -2.4305    119.7442     34.7650     50.6929
         6        -0.8609   -170.5146    -50.5327    -73.9694
         7        -0.2042      0.4142     25.9171      8.7091
         8        41.2912    -24.5747     -8.6254      2.6970
         9         1.6661     22.2424      7.5189     10.4758
        10       199.0986    -23.9165     13.5147     62.8989
        11       -75.2104     59.4116     -8.1742     -7.9910
        12       -68.7182     -8.8228     -1.6044    -26.3818
        13        -0.4149      4.5879      0.0262      1.3997
        14        19.3292    -34.6871      0.9227     -4.8117
        15       244.1410    -29.8194   -109.5672     34.9182
        16       -12.5201     37.7567    -28.4700     -1.0778
        17       -79.0793    -21.9997     -0.1236    -33.7342
        18       -94.2783    -37.3944      9.6397    -40.6777
        19        30.8574      1.2987     -0.3818     10.5914
        20        37.8894      0.8832     -2.1304     12.2140
  1/2[<0|del|b>*<b|r|0> + (<0|r|b>*<b|del|0>)*] (Au)
       state          X           Y           Z        Dip. S.   Osc.(frdel)
         1        -0.0006     -0.0001     -0.0000      0.0007      0.0005
         2        -0.2974      0.0001     -0.0087      0.3060      0.2040
         3        -0.0127     -0.1164     -0.0003      0.1293      0.0862
         4         0.0001     -0.0063     -0.0005      0.0067      0.0045
         5        -0.0018     -0.1139     -0.0005      0.1163      0.0775
         6        -0.0172     -0.4658     -0.0004      0.4834      0.3223
         7        -0.0000     -0.0519     -0.0003      0.0523      0.0348
         8        -0.0114     -0.2638     -0.0006      0.2758      0.1839
         9        -0.0008     -0.0044     -0.0021      0.0072      0.0048
        10        -0.1271     -0.0857     -0.0013      0.2141      0.1427
        11        -0.0765     -0.0300     -0.0013      0.1079      0.0719
        12        -0.0593     -0.0096     -0.0011      0.0699      0.0466
        13        -0.0004     -0.0001     -0.0001      0.0005      0.0003
        14        -0.0260     -0.0080     -0.0004      0.0343      0.0229
        15        -1.1410     -0.0010     -0.0195      1.1615      0.7744
        16        -0.0020     -0.0741     -0.0007      0.0768      0.0512
        17        -0.0857     -0.0143     -0.0005      0.1006      0.0671
        18        -0.0584     -0.0044     -0.0044      0.0672      0.0448
        19        -0.0206     -0.0035     -0.0007      0.0248      0.0166
        20        -0.0026     -0.0000     -0.0007      0.0033      0.0022

 Excitation energies and oscillator strengths:
 
 Excited State   1:      Singlet-A      4.1359 eV  299.78 nm  f=0.0006  <S**2>=0.000
      91 -> 95         0.10012
      92 -> 95         0.35138
      93 -> 95         0.55310
      93 -> 97         0.10972
      93 ->103         0.10431
 
 Excited State   2:      Singlet-A      4.3135 eV  287.43 nm  f=0.2029  <S**2>=0.000
      91 -> 96        -0.11801
      94 -> 95         0.67932
 
 Excited State   3:      Singlet-A      4.7188 eV  262.75 nm  f=0.0834  <S**2>=0.000
      91 -> 95         0.28107
      94 -> 96         0.62619
 
 Excited State   4:      Singlet-A      5.3981 eV  229.68 nm  f=0.0054  <S**2>=0.000
      92 -> 95         0.53472
      93 -> 95        -0.37363
      93 -> 96         0.14578
      94 -> 96        -0.10071
      94 -> 97         0.13756
 
 Excited State   5:      Singlet-A      5.6836 eV  218.14 nm  f=0.0793  <S**2>=0.000
      91 -> 95         0.22277
      92 -> 95        -0.19670
      93 -> 96         0.59358
      94 -> 96        -0.12039
 
 Excited State   6:      Singlet-A      5.7427 eV  215.90 nm  f=0.3346  <S**2>=0.000
      91 -> 95         0.48803
      92 -> 96        -0.36345
      93 -> 96        -0.19597
      94 -> 96        -0.23189
 
 Excited State   7:      Singlet-A      6.0091 eV  206.33 nm  f=0.0405  <S**2>=0.000
      91 -> 95        -0.25812
      91 -> 97        -0.12367
      92 -> 96        -0.30808
      93 -> 95         0.12974
      94 -> 97         0.52628
 
 Excited State   8:      Singlet-A      6.0835 eV  203.80 nm  f=0.1835  <S**2>=0.000
      91 -> 95         0.17604
      91 -> 97         0.14663
      92 -> 96         0.44660
      93 -> 96        -0.16095
      94 -> 97         0.42367
 
 Excited State   9:      Singlet-A      6.3797 eV  194.34 nm  f=0.0045  <S**2>=0.000
      89 -> 95         0.10806
      90 -> 95         0.62680
      90 -> 97        -0.13919
      93 -> 97         0.13628
 
 Excited State  10:      Singlet-A      6.5524 eV  189.22 nm  f=0.1424  <S**2>=0.000
      88 -> 95         0.14401
      89 -> 95        -0.34130
      89 -> 96        -0.11338
      89 -> 97        -0.11554
      91 -> 96         0.50701
      93 -> 97         0.11419
 
 Excited State  11:      Singlet-A      6.7293 eV  184.25 nm  f=0.0749  <S**2>=0.000
      88 -> 95        -0.17776
      89 -> 95         0.43568
      89 -> 96         0.12660
      91 -> 96         0.36773
      92 -> 97        -0.13733
      93 -> 96        -0.10210
      93 -> 97         0.20924
 
 Excited State  12:      Singlet-A      6.8860 eV  180.05 nm  f=0.0473  <S**2>=0.000
      90 -> 95        -0.18919
      90 -> 96         0.14030
      91 -> 96        -0.13411
      92 -> 97         0.29582
      93 -> 97         0.52469
 
 Excited State  13:      Singlet-A      7.0776 eV  175.18 nm  f=0.0006  <S**2>=0.000
      94 -> 98         0.64544
      94 -> 99         0.16025
 
 Excited State  14:      Singlet-A      7.2126 eV  171.90 nm  f=0.0246  <S**2>=0.000
      87 -> 96         0.10011
      90 -> 96         0.62296
      90 -> 97        -0.15770
      93 -> 97        -0.13669
 
 Excited State  15:      Singlet-A      7.2775 eV  170.37 nm  f=0.8075  <S**2>=0.000
      89 -> 95         0.11649
      91 -> 96         0.20472
      92 -> 97         0.56694
      93 -> 96        -0.10461
      93 -> 97        -0.24733
 
 Excited State  16:      Singlet-A      7.4842 eV  165.66 nm  f=0.0535  <S**2>=0.000
      89 -> 95         0.14639
      89 -> 96        -0.24843
      91 -> 97         0.56612
      92 -> 96        -0.15748
      93 -> 96         0.10480
 
 Excited State  17:      Singlet-A      7.5370 eV  164.50 nm  f=0.0692  <S**2>=0.000
      85 -> 95         0.36787
      86 -> 95        -0.12792
      88 -> 95         0.30400
      89 -> 95         0.25083
      89 -> 96        -0.23925
      89 -> 97        -0.11107
      91 -> 97        -0.17460
      92 -> 97        -0.12172
 
 Excited State  18:      Singlet-A      7.6945 eV  161.13 nm  f=0.0449  <S**2>=0.000
      85 -> 95         0.19897
      88 -> 95         0.29838
      88 -> 96        -0.16465
      89 -> 96         0.43812
      91 -> 97         0.18061
      94 ->104        -0.10223
 
 Excited State  19:      Singlet-A      7.7266 eV  160.46 nm  f=0.0164  <S**2>=0.000
      89 -> 96         0.12773
      92 -> 98         0.18680
      92 ->100         0.11574
      93 -> 98        -0.18807
      94 -> 99         0.36359
      94 ->100        -0.23671
      94 ->104         0.33122
      94 ->105        -0.14516
 
 Excited State  20:      Singlet-A      7.8863 eV  157.22 nm  f=0.0018  <S**2>=0.000
      91 ->102         0.10714
      93 ->102        -0.15323
      94 -> 99        -0.16193
      94 ->102         0.54916
      94 ->103        -0.10221
      94 ->104         0.13945
 This state for optimization and/or second-order correction.
 Total Energy, E(TD-HF/TD-DFT) =  -1134.35904891    
 Copying the excited state density for this state as the 1-particle RhoCI density.
 SavETr:  write IOETrn=   770 NScale= 10 NData=  16 NLR=1 NState=   20 LETran=     370.

 **********************************************************************

            Population analysis using the SCF density.

 **********************************************************************

 Orbital symmetries:
       Occupied  (A) (A) (A) (A) (A) (A) (A) (A) (A) (A) (A) (A)
                 (A) (A) (A) (A) (A) (A) (A) (A) (A) (A) (A) (A)
                 (A) (A) (A) (A) (A) (A) (A) (A) (A) (A) (A) (A)
                 (A) (A) (A) (A) (A) (A) (A) (A) (A) (A) (A) (A)
                 (A) (A) (A) (A) (A) (A) (A) (A) (A) (A) (A) (A)
                 (A) (A) (A) (A) (A) (A) (A) (A) (A) (A) (A) (A)
                 (A) (A) (A) (A) (A) (A) (A) (A) (A) (A) (A) (A)
                 (A) (A) (A) (A) (A) (A) (A) (A) (A) (A)
       Virtual   (A) (A) (A) (A) (A) (A) (A) (A) (A) (A) (A) (A)
                 (A) (A) (A) (A) (A) (A) (A) (A) (A) (A) (A) (A)
                 (A) (A) (A) (A) (A) (A) (A) (A) (A) (A) (A) (A)
                 (A) (A) (A) (A) (A) (A) (A) (A) (A) (A) (A) (A)
                 (A) (A) (A) (A) (A) (A) (A) (A) (A) (A) (A) (A)
                 (A) (A) (A) (A) (A) (A) (A) (A) (A) (A) (A) (A)
                 (A) (A) (A) (A) (A) (A) (A) (A) (A) (A) (A) (A)
                 (A) (A) (A) (A) (A) (A) (A) (A) (A) (A) (A) (A)
                 (A) (A) (A) (A) (A) (A) (A) (A) (A) (A) (A) (A)
                 (A) (A) (A) (A) (A) (A) (A) (A) (A) (A) (A) (A)
                 (A) (A) (A) (A) (A) (A) (A) (A) (A) (A) (A) (A)
                 (A) (A) (A) (A) (A) (A) (A) (A) (A) (A) (A) (A)
                 (A) (A) (A) (A) (A) (A) (A) (A) (A) (A) (A) (A)
                 (A) (A) (A) (A) (A) (A) (A) (A) (A) (A) (A) (A)
                 (A) (A) (A) (A) (A) (A) (A) (A) (A) (A) (A) (A)
                 (A) (A) (A) (A) (A) (A) (A) (A) (A) (A) (A) (A)
                 (A) (A) (A) (A) (A) (A) (A) (A) (A) (A) (A) (A)
                 (A) (A) (A) (A) (A) (A) (A) (A) (A) (A) (A) (A)
                 (A) (A) (A) (A) (A) (A) (A) (A) (A) (A) (A) (A)
                 (A) (A) (A) (A) (A) (A) (A) (A) (A) (A) (A) (A)
                 (A) (A) (A) (A) (A) (A) (A) (A) (A) (A) (A) (A)
                 (A) (A) (A) (A) (A) (A) (A) (A) (A) (A) (A) (A)
                 (A) (A) (A) (A) (A) (A) (A) (A) (A) (A) (A) (A)
                 (A) (A) (A) (A) (A) (A) (A) (A) (A) (A) (A) (A)
                 (A) (A) (A) (A) (A) (A) (A) (A) (A) (A) (A) (A)
                 (A) (A) (A) (A) (A) (A) (A) (A) (A) (A) (A) (A)
                 (A) (A) (A) (A) (A) (A) (A) (A) (A) (A) (A) (A)
                 (A) (A) (A) (A) (A) (A) (A) (A) (A) (A) (A) (A)
                 (A) (A) (A)
 The electronic state is 1-A.
 Alpha  occ. eigenvalues --  -19.26902 -19.22504 -19.20490 -19.17062 -14.46165
 Alpha  occ. eigenvalues --  -10.33058 -10.32900 -10.32891 -10.32116 -10.31796
 Alpha  occ. eigenvalues --  -10.30094 -10.29330 -10.28706 -10.27245 -10.27134
 Alpha  occ. eigenvalues --  -10.27115 -10.26593 -10.25605 -10.24175 -10.24141
 Alpha  occ. eigenvalues --  -10.23778 -10.23589 -10.23470 -10.23455 -10.23285
 Alpha  occ. eigenvalues --   -1.16192  -1.12180  -1.08526  -1.07441  -1.06297
 Alpha  occ. eigenvalues --   -0.93756  -0.88086  -0.87600  -0.85535  -0.84870
 Alpha  occ. eigenvalues --   -0.83541  -0.81374  -0.79742  -0.78483  -0.75815
 Alpha  occ. eigenvalues --   -0.74932  -0.71749  -0.70071  -0.69003  -0.67563
 Alpha  occ. eigenvalues --   -0.66154  -0.64496  -0.62319  -0.61777  -0.61248
 Alpha  occ. eigenvalues --   -0.59612  -0.56787  -0.55629  -0.54726  -0.53709
 Alpha  occ. eigenvalues --   -0.53167  -0.53086  -0.52568  -0.51820  -0.51009
 Alpha  occ. eigenvalues --   -0.50452  -0.50019  -0.49762  -0.49200  -0.48924
 Alpha  occ. eigenvalues --   -0.48244  -0.47471  -0.47318  -0.46921  -0.46025
 Alpha  occ. eigenvalues --   -0.44762  -0.44335  -0.43622  -0.43290  -0.42912
 Alpha  occ. eigenvalues --   -0.42388  -0.41911  -0.40843  -0.40408  -0.40044
 Alpha  occ. eigenvalues --   -0.39773  -0.39229  -0.38079  -0.37678  -0.36873
 Alpha  occ. eigenvalues --   -0.36338  -0.35871  -0.35273  -0.34308  -0.31839
 Alpha  occ. eigenvalues --   -0.30008  -0.28750  -0.28014  -0.24135
 Alpha virt. eigenvalues --    0.00913   0.03931   0.07586   0.12474   0.13350
 Alpha virt. eigenvalues --    0.13863   0.14965   0.15249   0.15997   0.16433
 Alpha virt. eigenvalues --    0.17512   0.17966   0.18190   0.18839   0.19266
 Alpha virt. eigenvalues --    0.19822   0.20132   0.20563   0.20706   0.21040
 Alpha virt. eigenvalues --    0.21313   0.21884   0.22513   0.22721   0.22970
 Alpha virt. eigenvalues --    0.23496   0.23687   0.24304   0.24636   0.25105
 Alpha virt. eigenvalues --    0.25794   0.26323   0.26645   0.26908   0.27488
 Alpha virt. eigenvalues --    0.27976   0.28563   0.29011   0.29710   0.29768
 Alpha virt. eigenvalues --    0.31528   0.31873   0.32248   0.32655   0.34024
 Alpha virt. eigenvalues --    0.34490   0.35147   0.35534   0.36935   0.37314
 Alpha virt. eigenvalues --    0.37856   0.40340   0.42276   0.43692   0.45336
 Alpha virt. eigenvalues --    0.46730   0.49646   0.53644   0.54334   0.55636
 Alpha virt. eigenvalues --    0.56294   0.56843   0.57216   0.57730   0.57913
 Alpha virt. eigenvalues --    0.58769   0.58943   0.59781   0.60091   0.60555
 Alpha virt. eigenvalues --    0.60949   0.61541   0.62179   0.62701   0.63073
 Alpha virt. eigenvalues --    0.63452   0.63751   0.64793   0.65511   0.65852
 Alpha virt. eigenvalues --    0.67033   0.67398   0.68431   0.68709   0.69287
 Alpha virt. eigenvalues --    0.69414   0.70483   0.70866   0.72515   0.73865
 Alpha virt. eigenvalues --    0.74137   0.74765   0.75359   0.75949   0.76425
 Alpha virt. eigenvalues --    0.76781   0.77099   0.77755   0.79282   0.79771
 Alpha virt. eigenvalues --    0.80002   0.81768   0.83583   0.83790   0.85728
 Alpha virt. eigenvalues --    0.86934   0.87634   0.88317   0.89069   0.90290
 Alpha virt. eigenvalues --    0.90947   0.91581   0.92034   0.92430   0.92584
 Alpha virt. eigenvalues --    0.92779   0.93472   0.93800   0.94089   0.94668
 Alpha virt. eigenvalues --    0.95411   0.95668   0.95768   0.96605   0.97027
 Alpha virt. eigenvalues --    0.97417   0.97690   0.98304   0.98499   0.98699
 Alpha virt. eigenvalues --    0.99784   1.00145   1.00710   1.01120   1.01532
 Alpha virt. eigenvalues --    1.03159   1.03838   1.04464   1.04789   1.05106
 Alpha virt. eigenvalues --    1.06243   1.06607   1.07264   1.08617   1.08998
 Alpha virt. eigenvalues --    1.09346   1.10825   1.11721   1.12083   1.12533
 Alpha virt. eigenvalues --    1.12760   1.14769   1.15749   1.18674   1.19291
 Alpha virt. eigenvalues --    1.20224   1.20757   1.21522   1.23663   1.24383
 Alpha virt. eigenvalues --    1.26247   1.27395   1.27898   1.29375   1.29872
 Alpha virt. eigenvalues --    1.30309   1.30757   1.34312   1.35977   1.38260
 Alpha virt. eigenvalues --    1.39976   1.41132   1.41842   1.43703   1.43801
 Alpha virt. eigenvalues --    1.45329   1.46354   1.47194   1.49558   1.50650
 Alpha virt. eigenvalues --    1.51047   1.51404   1.52915   1.53632   1.55268
 Alpha virt. eigenvalues --    1.55799   1.56620   1.57013   1.60356   1.60868
 Alpha virt. eigenvalues --    1.62577   1.64084   1.66173   1.67298   1.69670
 Alpha virt. eigenvalues --    1.70609   1.71322   1.73004   1.76037   1.76321
 Alpha virt. eigenvalues --    1.77754   1.79321   1.81816   1.82288   1.83690
 Alpha virt. eigenvalues --    1.84268   1.85419   1.85975   1.86802   1.88360
 Alpha virt. eigenvalues --    1.89149   1.89266   1.90645   1.91575   1.92391
 Alpha virt. eigenvalues --    1.93344   1.94582   1.95274   1.95764   1.96732
 Alpha virt. eigenvalues --    1.98105   1.99081   1.99669   2.00837   2.01939
 Alpha virt. eigenvalues --    2.02243   2.03598   2.04421   2.06131   2.06428
 Alpha virt. eigenvalues --    2.06964   2.07675   2.07842   2.08981   2.09952
 Alpha virt. eigenvalues --    2.10232   2.10811   2.12833   2.13558   2.13733
 Alpha virt. eigenvalues --    2.15646   2.17700   2.18942   2.19449   2.20032
 Alpha virt. eigenvalues --    2.20530   2.21206   2.21970   2.25496   2.26804
 Alpha virt. eigenvalues --    2.27224   2.28309   2.29231   2.29932   2.31116
 Alpha virt. eigenvalues --    2.32805   2.34491   2.34835   2.35432   2.36676
 Alpha virt. eigenvalues --    2.37519   2.37793   2.39763   2.40397   2.41547
 Alpha virt. eigenvalues --    2.42054   2.42219   2.44287   2.44708   2.46008
 Alpha virt. eigenvalues --    2.47047   2.48204   2.48745   2.49173   2.49816
 Alpha virt. eigenvalues --    2.53015   2.55455   2.56794   2.57622   2.58318
 Alpha virt. eigenvalues --    2.60031   2.61939   2.63117   2.64182   2.64704
 Alpha virt. eigenvalues --    2.67723   2.68277   2.71074   2.71549   2.73359
 Alpha virt. eigenvalues --    2.74969   2.76187   2.77500   2.79515   2.80379
 Alpha virt. eigenvalues --    2.82337   2.85021   2.85300   2.86697   2.88723
 Alpha virt. eigenvalues --    2.90530   2.92692   2.95315   2.96986   3.04211
 Alpha virt. eigenvalues --    3.04815   3.07580   3.08765   3.12865   3.19735
 Alpha virt. eigenvalues --    3.22342   3.29220   3.52453   3.56066   3.97416
 Alpha virt. eigenvalues --    4.03944   4.13020   4.17326   4.18329   4.19336
 Alpha virt. eigenvalues --    4.22547   4.26183   4.28486   4.30652   4.31976
 Alpha virt. eigenvalues --    4.34506   4.36981   4.39985   4.43687   4.46075
 Alpha virt. eigenvalues --    4.47830   4.51684   4.58212   4.61682   4.65065
 Alpha virt. eigenvalues --    4.68368   4.70127   4.97561   5.13507
          Condensed to atoms (all electrons):
 Mulliken charges:
               1
     1  O   -0.555384
     2  C    0.399787
     3  C    0.197867
     4  O   -0.529136
     5  C   -0.218308
     6  C    0.344846
     7  C   -0.530283
     8  N   -0.781213
     9  C    0.259081
    10  C    0.009750
    11  C    0.066611
    12  C    0.077219
    13  O   -0.631654
    14  C   -0.283817
    15  C   -0.258095
    16  C   -0.275271
    17  C   -0.258560
    18  C   -0.253563
    19  C   -0.251283
    20  C   -0.443747
    21  C   -0.207859
    22  C   -0.203266
    23  C    0.363832
    24  O   -0.552241
    25  C   -0.218833
    26  H    0.154120
    27  H    0.127782
    28  H    0.192962
    29  H    0.174416
    30  H    0.164614
    31  H    0.204410
    32  H    0.352314
    33  H    0.183190
    34  H    0.389752
    35  H    0.106021
    36  H    0.156447
    37  H    0.154613
    38  H    0.128444
    39  H    0.160236
    40  H    0.107129
    41  H    0.124690
    42  H    0.134618
    43  H    0.123546
    44  H    0.131837
    45  H    0.128684
    46  H    0.128524
    47  H    0.148472
    48  H    0.140753
    49  H    0.140227
    50  H    0.135248
    51  H    0.142305
    52  H    0.162935
    53  H    0.160938
    54  H    0.174295
 Sum of Mulliken charges =  -0.00000
 Mulliken charges with hydrogens summed into heavy atoms:
               1
     1  O   -0.555384
     2  C    0.399787
     3  C    0.197867
     4  O   -0.529136
     5  C    0.256556
     6  C    0.344846
     7  C    0.013157
     8  N   -0.428899
     9  C    0.259081
    10  C    0.009750
    11  C    0.066611
    12  C    0.260408
    13  O   -0.241902
    14  C   -0.021348
    15  C    0.024962
    16  C   -0.007906
    17  C    0.000748
    18  C    0.001819
    19  C    0.005924
    20  C   -0.014295
    21  C   -0.072611
    22  C   -0.060961
    23  C    0.363832
    24  O   -0.552241
    25  C    0.279336
 Electronic spatial extent (au):  <R**2>=          13808.0277
 Charge=             -0.0000 electrons
 Dipole moment (field-independent basis, Debye):
    X=             -5.6828    Y=             -1.9119    Z=              3.6141  Tot=              7.0008
 Quadrupole moment (field-independent basis, Debye-Ang):
   XX=           -120.0943   YY=           -138.3198   ZZ=           -156.0228
   XY=              6.5206   XZ=             -2.4514   YZ=              0.1426
 Traceless Quadrupole moment (field-independent basis, Debye-Ang):
   XX=             18.0513   YY=             -0.1742   ZZ=            -17.8772
   XY=              6.5206   XZ=             -2.4514   YZ=              0.1426
 Octapole moment (field-independent basis, Debye-Ang**2):
  XXX=           -237.3207  YYY=            -22.9393  ZZZ=             -1.1808  XYY=            -60.9675
  XXY=            -36.8503  XXZ=             18.7940  XZZ=            -10.3476  YZZ=              8.8784
  YYZ=             32.9353  XYZ=             -2.8500
 Hexadecapole moment (field-independent basis, Debye-Ang**3):
 XXXX=         -13305.3005 YYYY=          -3583.1070 ZZZZ=           -457.3067 XXXY=            196.8261
 XXXZ=           -136.1172 YYYX=            140.6778 YYYZ=             11.1859 ZZZX=            -18.8460
 ZZZY=            -11.8404 XXYY=          -2726.7598 XXZZ=          -2461.7630 YYZZ=           -761.7732
 XXYZ=            -27.0218 YYXZ=            -40.5483 ZZXY=              9.7490
 N-N= 2.222602537986D+03 E-N=-7.085924768895D+03  KE= 1.124121360964D+03
 1\1\GINC-C078\SP\RCAM-B3LYP TD-FC\6-31G(d)\C20H29N1O4\XYCAO\28-Dec-202
 3\0\\# td=(nstates=20,root=20) cam-b3lyp/6-31g(d)\\Title\\0,1\O,0,-0.0
 30533,1.499158,0.738279\C,0,1.143223,1.227598,0.434602\C,0,2.134836,2.
 290767,0.252896\O,0,1.778872,3.598231,0.471589\C,0,0.727952,4.117293,-
 0.353767\C,0,3.446819,2.023292,-0.039487\C,0,4.506064,3.075262,-0.1961
 21\N,0,3.850596,0.721999,-0.170954\C,0,2.999812,-0.351812,-0.041869\C,
 0,1.62917,-0.16048,0.238291\C,0,0.794745,-1.315188,0.380909\C,0,-0.712
 011,-1.224104,0.654477\O,0,-1.217353,-2.467789,1.161961\C,0,-1.489946,
 -0.776603,-0.600398\C,0,-2.921178,-0.271183,-0.34922\C,0,-3.934207,-1.
 323175,0.129706\C,0,-5.352889,-0.773455,0.360049\C,0,-6.078919,-0.3099
 55,-0.912341\C,0,-7.546971,0.094037,-0.693995\C,0,-7.739179,1.339274,0
 .180259\C,0,1.373078,-2.567553,0.252328\C,0,2.738518,-2.749158,-0.0362
 97\C,0,3.554138,-1.648065,-0.19114\O,0,4.898524,-1.662023,-0.469829\C,
 0,5.532791,-2.92525,-0.608073\H,0,0.631362,5.170763,-0.080313\H,0,0.99
 6577,4.043071,-1.416918\H,0,-0.208499,3.589369,-0.167586\H,0,5.260845,
 2.993559,0.596905\H,0,5.022932,2.974214,-1.159036\H,0,4.054739,4.06511
 6,-0.136951\H,0,4.820782,0.510314,-0.36069\H,0,-0.878527,-0.495103,1.4
 48066\H,0,-1.506387,-2.997522,0.402835\H,0,-1.498005,-1.618973,-1.3142
 89\H,0,-0.92769,0.026005,-1.084043\H,0,-2.868771,0.548065,0.380868\H,0
 ,-3.28023,0.178039,-1.28495\H,0,-3.571177,-1.771789,1.060327\H,0,-3.98
 3976,-2.140789,-0.608331\H,0,-5.958027,-1.556956,0.839666\H,0,-5.29896
 9,0.052475,1.082837\H,0,-6.044141,-1.123896,-1.651676\H,0,-5.542734,0.
 535707,-1.365269\H,0,-8.012137,0.272698,-1.673181\H,0,-8.091315,-0.751
 575,-0.248941\H,0,-7.365406,1.185261,1.198563\H,0,-7.206853,2.201813,-
 0.240499\H,0,-8.79929,1.607917,0.256219\H,0,0.754519,-3.442722,0.41066
 8\H,0,3.135802,-3.754084,-0.126846\H,0,5.457416,-3.511157,0.316704\H,0
 ,5.099569,-3.498893,-1.437243\H,0,6.582269,-2.714779,-0.82107\\Version
 =ES64L-G16RevA.03\State=1-A\HF=-1134.6488644\RMSD=5.577e-09\PG=C01 [X(
 C20H29N1O4)]\\@


 IF MATHEMATICALLY YOU END UP WITH THE INCORRECT ANSWER,
 TRY MULTIPLYING BY THE PAGE NUMBER.
 Job cpu time:       0 days  1 hours 38 minutes  6.2 seconds.
 Elapsed time:       0 days  0 hours  3 minutes  4.6 seconds.
 File lengths (MBytes):  RWF=   2271 Int=      0 D2E=      0 Chk=    143 Scr=      1
 Normal termination of Gaussian 16 at Thu Dec 28 13:10:55 2023.
