 Entering Gaussian System, Link 0=g16
 Input=molecule_6_1_ECD.com
 Output=molecule_6_1_ECD.log
 Initial command:
 /share/apps/g16/A03/l1.exe "/tmp/954365.tmpdir/scr/Gau-35301.inp" -scrdir="/tmp/954365.tmpdir/scr/"
 Entering Link 1 = /share/apps/g16/A03/l1.exe PID=     35302.
  
 Copyright (c) 1988,1990,1992,1993,1995,1998,2003,2009,2016,
            Gaussian, Inc.  All Rights Reserved.
  
 This is part of the Gaussian(R) 16 program.  It is based on
 the Gaussian(R) 09 system (copyright 2009, Gaussian, Inc.),
 the Gaussian(R) 03 system (copyright 2003, Gaussian, Inc.),
 the Gaussian(R) 98 system (copyright 1998, Gaussian, Inc.),
 the Gaussian(R) 94 system (copyright 1995, Gaussian, Inc.),
 the Gaussian 92(TM) system (copyright 1992, Gaussian, Inc.),
 the Gaussian 90(TM) system (copyright 1990, Gaussian, Inc.),
 the Gaussian 88(TM) system (copyright 1988, Gaussian, Inc.),
 the Gaussian 86(TM) system (copyright 1986, Carnegie Mellon
 University), and the Gaussian 82(TM) system (copyright 1983,
 Carnegie Mellon University). Gaussian is a federally registered
 trademark of Gaussian, Inc.
  
 This software contains proprietary and confidential information,
 including trade secrets, belonging to Gaussian, Inc.
  
 This software is provided under written license and may be
 used, copied, transmitted, or stored only in accord with that
 written license.
  
 The following legend is applicable only to US Government
 contracts under FAR:
  
                    RESTRICTED RIGHTS LEGEND
  
 Use, reproduction and disclosure by the US Government is
 subject to restrictions as set forth in subparagraphs (a)
 and (c) of the Commercial Computer Software - Restricted
 Rights clause in FAR 52.227-19.
  
 Gaussian, Inc.
 340 Quinnipiac St., Bldg. 40, Wallingford CT 06492
  
  
 ---------------------------------------------------------------
 Warning -- This program may not be used in any manner that
 competes with the business of Gaussian, Inc. or will provide
 assistance to any competitor of Gaussian, Inc.  The licensee
 of this program is prohibited from giving any competitor of
 Gaussian, Inc. access to this program.  By using this program,
 the user acknowledges that Gaussian, Inc. is engaged in the
 business of creating and licensing software in the field of
 computational chemistry and represents and warrants to the
 licensee that it is not a competitor of Gaussian, Inc. and that
 it will not use this program in any manner prohibited above.
 ---------------------------------------------------------------
  

 Cite this work as:
 Gaussian 16, Revision A.03,
 M. J. Frisch, G. W. Trucks, H. B. Schlegel, G. E. Scuseria, 
 M. A. Robb, J. R. Cheeseman, G. Scalmani, V. Barone, 
 G. A. Petersson, H. Nakatsuji, X. Li, M. Caricato, A. V. Marenich, 
 J. Bloino, B. G. Janesko, R. Gomperts, B. Mennucci, H. P. Hratchian, 
 J. V. Ortiz, A. F. Izmaylov, J. L. Sonnenberg, D. Williams-Young, 
 F. Ding, F. Lipparini, F. Egidi, J. Goings, B. Peng, A. Petrone, 
 T. Henderson, D. Ranasinghe, V. G. Zakrzewski, J. Gao, N. Rega, 
 G. Zheng, W. Liang, M. Hada, M. Ehara, K. Toyota, R. Fukuda, 
 J. Hasegawa, M. Ishida, T. Nakajima, Y. Honda, O. Kitao, H. Nakai, 
 T. Vreven, K. Throssell, J. A. Montgomery, Jr., J. E. Peralta, 
 F. Ogliaro, M. J. Bearpark, J. J. Heyd, E. N. Brothers, K. N. Kudin, 
 V. N. Staroverov, T. A. Keith, R. Kobayashi, J. Normand, 
 K. Raghavachari, A. P. Rendell, J. C. Burant, S. S. Iyengar, 
 J. Tomasi, M. Cossi, J. M. Millam, M. Klene, C. Adamo, R. Cammi, 
 J. W. Ochterski, R. L. Martin, K. Morokuma, O. Farkas, 
 J. B. Foresman, and D. J. Fox, Gaussian, Inc., Wallingford CT, 2016.
 
 ******************************************
 Gaussian 16:  ES64L-G16RevA.03 25-Dec-2016
                28-Dec-2023 
 ******************************************
 %nprocs=32
 Will use up to   32 processors via shared memory.
 %chk=molecule_6_1_ECD.chk
 %mem=10GB
 --------------------------------------------
 # td=(nstates=20,root=20) cam-b3lyp/6-31g(d)
 --------------------------------------------
 1/38=1,172=1/1;
 2/12=2,17=6,18=5,40=1/2;
 3/5=1,6=6,7=1,11=9,25=1,30=1,74=-40/1,2,3,8;
 4//1;
 5/5=2,38=5/2;
 8/6=1,10=2,107=20,108=20/1;
 9/8=20,41=20,42=1,70=2/14;
 6/7=2,8=2,9=2,10=2/1;
 99/5=1,9=1/99;
 -----
 Title
 -----
 Symbolic Z-matrix:
 Charge =  0 Multiplicity = 1
 O                    -2.15958   0.17933   1.92922 
 C                    -2.33071  -0.82007   1.03793 
 C                    -2.42941  -0.35466  -0.41999 
 C                    -1.594    -1.29685  -1.32445 
 C                    -0.15419  -1.32241  -0.92053 
 C                     0.71098  -2.3904   -0.89673 
 N                     1.94607  -1.98244  -0.43705 
 C                     1.88423  -0.64032  -0.14065 
 C                     2.87513   0.21196   0.35564 
 O                     4.10752  -0.32731   0.60827 
 C                     2.53208   1.54535   0.55242 
 C                     1.23754   2.00874   0.25613 
 C                     0.22283   1.173    -0.2236 
 C                    -1.13017   1.70592  -0.53306 
 C                    -1.23948   3.2057   -0.75429 
 N                    -2.24283   1.06965  -0.64479 
 C                     0.57363  -0.18869  -0.42893 
 O                    -2.44595  -1.97977   1.37338 
 H                    -2.1391   -0.2545    2.80353 
 H                    -3.48218  -0.55196  -0.67039 
 H                    -2.02477  -2.30178  -1.27301 
 H                    -1.71835  -0.93974  -2.35513 
 H                     0.5375   -3.42302  -1.1669 
 H                     2.75884  -2.5643   -0.30996 
 H                     4.69251   0.36977   0.94414 
 H                     3.27616   2.23972   0.93788 
 H                     1.03217   3.05987   0.42415 
 H                    -1.0717    3.75536   0.18078 
 H                    -0.50355   3.56547  -1.48266 
 H                    -2.24682   3.43294  -1.10585 
 
                          Input orientation:                          
 ---------------------------------------------------------------------
 Center     Atomic      Atomic             Coordinates (Angstroms)
 Number     Number       Type             X           Y           Z
 ---------------------------------------------------------------------
      1          8           0       -2.159581    0.179328    1.929219
      2          6           0       -2.330705   -0.820067    1.037930
      3          6           0       -2.429413   -0.354658   -0.419991
      4          6           0       -1.593996   -1.296847   -1.324451
      5          6           0       -0.154186   -1.322407   -0.920525
      6          6           0        0.710978   -2.390401   -0.896725
      7          7           0        1.946065   -1.982440   -0.437050
      8          6           0        1.884233   -0.640319   -0.140653
      9          6           0        2.875125    0.211957    0.355642
     10          8           0        4.107515   -0.327305    0.608271
     11          6           0        2.532082    1.545353    0.552419
     12          6           0        1.237540    2.008738    0.256133
     13          6           0        0.222825    1.172995   -0.223604
     14          6           0       -1.130171    1.705921   -0.533061
     15          6           0       -1.239481    3.205701   -0.754288
     16          7           0       -2.242829    1.069652   -0.644786
     17          6           0        0.573630   -0.188694   -0.428933
     18          8           0       -2.445949   -1.979767    1.373375
     19          1           0       -2.139102   -0.254496    2.803526
     20          1           0       -3.482177   -0.551959   -0.670394
     21          1           0       -2.024771   -2.301778   -1.273005
     22          1           0       -1.718346   -0.939743   -2.355130
     23          1           0        0.537500   -3.423023   -1.166896
     24          1           0        2.758836   -2.564299   -0.309964
     25          1           0        4.692509    0.369770    0.944137
     26          1           0        3.276156    2.239719    0.937882
     27          1           0        1.032170    3.059875    0.424149
     28          1           0       -1.071701    3.755361    0.180776
     29          1           0       -0.503554    3.565473   -1.482660
     30          1           0       -2.246820    3.432935   -1.105848
 ---------------------------------------------------------------------
                    Distance matrix (angstroms):
                    1          2          3          4          5
     1  O    0.000000
     2  C    1.349989   0.000000
     3  C    2.424198   1.533585   0.000000
     4  C    3.617367   2.520100   1.550384   0.000000
     5  C    3.794451   2.970711   2.522644   1.495614   0.000000
     6  C    4.778031   3.932006   3.772742   2.586835   1.374659
     7  N    5.208531   4.670914   4.668487   3.713428   2.253984
     8  C    4.616126   4.380305   4.332110   3.732356   2.286612
     9  C    5.274986   5.350818   5.390805   5.007219   3.627616
    10  O    6.424801   6.471329   6.617363   6.097758   4.635681
    11  C    5.076741   5.429331   5.401116   5.350258   4.196385
    12  C    4.205519   4.620142   4.414672   4.630630   3.797098
    13  C    3.361232   3.476245   3.067028   3.257733   2.618180
    14  C    3.074572   3.207789   2.438606   3.139753   3.205222
    15  C    4.148099   4.539782   3.768799   4.552330   4.659320
    16  N    2.724905   2.531856   1.453962   2.546222   3.187539
    17  C    3.628604   3.314435   3.007639   2.593946   1.434114
    18  O    2.247812   1.212728   2.420210   2.910407   3.308516
    19  H    0.976235   1.863843   3.238113   4.292299   4.353031
    20  H    3.006997   2.077532   1.099973   2.132575   3.425154
    21  H    4.053184   2.762152   2.163942   1.094578   2.140677
    22  H    4.450017   3.449951   2.143059   1.097855   2.156645
    23  H    5.462335   4.456819   4.333048   3.014751   2.225245
    24  H    6.060714   5.546403   5.640261   4.645725   3.225024
    25  H    6.925156   7.123907   7.287483   6.887979   5.461765
    26  H    5.897050   6.388207   6.413122   6.429917   5.282960
    27  H    4.555224   5.171035   4.934994   5.379161   4.734975
    28  H    4.126566   4.822276   4.369961   5.297481   5.276213
    29  H    5.084223   5.378180   4.495067   4.985604   4.932487
    30  H    4.450303   4.763491   3.853518   4.779624   5.198725
                    6          7          8          9         10
     6  C    0.000000
     7  N    1.379555   0.000000
     8  C    2.238517   1.375850   0.000000
     9  C    3.608909   2.511352   1.398052   0.000000
    10  O    4.249452   2.916168   2.366822   1.368726   0.000000
    11  C    4.572373   3.710497   2.382692   1.390807   2.447847
    12  C    4.578075   4.112422   2.755568   2.433107   3.717237
    13  C    3.659122   3.601650   2.460745   2.879898   4.246614
    14  C    4.505767   4.803796   3.839981   4.366248   5.733237
    15  C    5.927979   6.096323   4.992595   5.208112   6.552028
    16  N    4.556360   5.187027   4.495641   5.284879   6.621821
    17  C    2.255040   2.258577   1.415892   2.464337   3.685559
    18  O    3.910008   4.750519   4.778795   5.844079   6.801758
    19  H    5.135845   5.493242   5.000427   5.599302   6.621531
    20  H    4.584064   5.618410   5.393217   6.484721   7.699927
    21  H    2.762927   4.070422   4.395791   5.742851   6.711384
    22  H    3.183232   4.265461   4.239356   5.456617   6.564867
    23  H    1.081386   2.142898   3.257346   4.582106   5.047742
    24  H    2.137347   1.007625   2.120211   2.857298   2.768796
    25  H    5.182654   3.870856   3.175447   1.916798   0.970019
    26  H    5.602136   4.635322   3.375693   2.147475   2.718348
    27  H    5.617240   5.196326   3.838808   3.392906   4.578716
    28  H    6.489171   6.512371   5.306870   5.306951   6.608721
    29  H    6.106623   6.154126   5.019083   5.103028   6.386523
    30  H    6.534795   6.881414   5.881207   6.224546   7.579920
                   11         12         13         14         15
    11  C    0.000000
    12  C    1.406538   0.000000
    13  C    2.464453   1.399379   0.000000
    14  C    3.823107   2.514077   1.486732   0.000000
    15  C    4.323069   2.930751   2.559660   1.519944   0.000000
    16  N    4.945641   3.715711   2.503502   1.286596   2.362499
    17  C    2.793833   2.395579   1.421063   2.550166   3.862013
    18  O    6.154773   5.542968   4.428612   4.353167   5.733375
    19  H    5.488798   4.797202   4.096333   3.999249   5.043840
    20  H    6.485777   5.448977   4.111220   3.263252   4.376840
    21  H    6.236786   5.617961   4.269306   4.172467   5.587314
    22  H    5.718014   4.924378   3.574243   3.265796   4.469532
    23  H    5.623092   5.658542   4.702361   5.430372   6.875165
    24  H    4.205278   4.852574   4.517320   5.780046   7.033979
    25  H    2.490559   3.885406   4.689015   6.153943   6.790851
    26  H    1.088289   2.161964   3.436536   4.675931   4.918083
    27  H    2.135408   1.084110   2.152891   2.724915   2.563275
    28  H    4.243761   2.896371   2.916836   2.170987   1.097552
    29  H    4.175825   2.911741   2.799428   2.179982   1.096152
    30  H    5.399141   4.003011   3.461911   2.134846   1.090854
                   16         17         18         19         20
    16  N    0.000000
    17  C    3.092324   0.000000
    18  O    3.662402   3.946405   0.000000
    19  H    3.695265   4.220431   2.261868   0.000000
    20  H    2.041142   4.079195   2.699888   3.736369   0.000000
    21  H    3.436386   3.453877   2.698964   4.563172   2.355640
    22  H    2.690358   3.086659   3.938630   5.220951   2.469780
    23  H    5.309139   3.317647   4.175755   5.741778   4.964607
    24  H    6.191475   3.229981   5.501372   6.246504   6.567318
    25  H    7.149365   4.377484   7.527427   7.107598   8.383423
    26  H    5.859445   3.881884   7.122935   6.247140   7.486994
    27  H    3.978596   3.389868   6.196477   5.167539   5.884106
    28  H    3.044031   4.316761   6.016855   4.908881   5.008781
    29  H    3.155350   4.045298   6.532957   5.969805   5.146379
    30  H    2.407841   4.639973   5.956806   5.375124   4.194652
                   21         22         23         24         25
    21  H    0.000000
    22  H    1.766361   0.000000
    23  H    2.798872   3.559132   0.000000
    24  H    4.886641   5.183343   2.531022   0.000000
    25  H    7.561398   7.327963   6.008813   3.731035   0.000000
    26  H    7.322093   6.774803   6.633021   4.990323   2.345806
    27  H    6.400980   5.593449   6.693586   5.928881   4.572213
    28  H    6.301647   5.375218   7.478967   7.406210   6.728377
    29  H    6.064874   4.746988   7.072664   7.042195   6.565130
    30  H    5.741444   4.578242   7.400022   7.852187   7.857462
                   26         27         28         29         30
    26  H    0.000000
    27  H    2.443778   0.000000
    28  H    4.666288   2.229171   0.000000
    29  H    4.680049   2.500000   1.768012   0.000000
    30  H    6.008649   3.637560   1.772079   1.788443   0.000000
 Stoichiometry    C13H12N2O3
 Framework group  C1[X(C13H12N2O3)]
 Deg. of freedom    84
 Full point group                 C1      NOp   1
 Largest Abelian subgroup         C1      NOp   1
 Largest concise Abelian subgroup C1      NOp   1
                         Standard orientation:                         
 ---------------------------------------------------------------------
 Center     Atomic      Atomic             Coordinates (Angstroms)
 Number     Number       Type             X           Y           Z
 ---------------------------------------------------------------------
      1          8           0       -2.159581    0.179328    1.929219
      2          6           0       -2.330705   -0.820067    1.037930
      3          6           0       -2.429413   -0.354658   -0.419991
      4          6           0       -1.593996   -1.296847   -1.324451
      5          6           0       -0.154186   -1.322407   -0.920525
      6          6           0        0.710978   -2.390401   -0.896725
      7          7           0        1.946065   -1.982440   -0.437050
      8          6           0        1.884233   -0.640319   -0.140653
      9          6           0        2.875125    0.211957    0.355642
     10          8           0        4.107515   -0.327305    0.608271
     11          6           0        2.532082    1.545353    0.552419
     12          6           0        1.237540    2.008738    0.256133
     13          6           0        0.222825    1.172995   -0.223604
     14          6           0       -1.130171    1.705921   -0.533061
     15          6           0       -1.239481    3.205701   -0.754288
     16          7           0       -2.242829    1.069652   -0.644786
     17          6           0        0.573630   -0.188694   -0.428933
     18          8           0       -2.445949   -1.979767    1.373375
     19          1           0       -2.139102   -0.254496    2.803526
     20          1           0       -3.482177   -0.551959   -0.670394
     21          1           0       -2.024771   -2.301778   -1.273005
     22          1           0       -1.718346   -0.939743   -2.355130
     23          1           0        0.537500   -3.423023   -1.166896
     24          1           0        2.758836   -2.564299   -0.309964
     25          1           0        4.692509    0.369770    0.944137
     26          1           0        3.276156    2.239719    0.937882
     27          1           0        1.032170    3.059875    0.424149
     28          1           0       -1.071701    3.755361    0.180776
     29          1           0       -0.503554    3.565473   -1.482660
     30          1           0       -2.246820    3.432935   -1.105848
 ---------------------------------------------------------------------
 Rotational constants (GHZ):           0.6373121           0.3929617           0.3015352
 Standard basis: 6-31G(d) (6D, 7F)
 There are   294 symmetry adapted cartesian basis functions of A   symmetry.
 There are   294 symmetry adapted basis functions of A   symmetry.
   294 basis functions,   552 primitive gaussians,   294 cartesian basis functions
    64 alpha electrons       64 beta electrons
       nuclear repulsion energy      1328.5242917968 Hartrees.
 NAtoms=   30 NActive=   30 NUniq=   30 SFac= 1.00D+00 NAtFMM=   60 NAOKFM=F Big=F
 Integral buffers will be    131072 words long.
 Raffenetti 1 integral format.
 Two-electron integral symmetry is turned on.
 One-electron integrals computed using PRISM.
 NBasis=   294 RedAO= T EigKep=  2.74D-04  NBF=   294
 NBsUse=   294 1.00D-06 EigRej= -1.00D+00 NBFU=   294
 ExpMin= 1.61D-01 ExpMax= 5.48D+03 ExpMxC= 8.25D+02 IAcc=3 IRadAn=         5 AccDes= 0.00D+00
 Harris functional with IExCor=20419 and IRadAn=       5 diagonalized for initial guess.
 HarFok:  IExCor=20419 AccDes= 0.00D+00 IRadAn=         5 IDoV= 1 UseB2=F ITyADJ=14
 ICtDFT=  3500011 ScaDFX=  1.000000  1.000000  1.000000  1.000000
 FoFCou: FMM=F IPFlag=           0 FMFlag=      100000 FMFlg1=           0
         NFxFlg=           0 DoJE=T BraDBF=F KetDBF=T FulRan=T
         wScrn=  0.000000 ICntrl=       500 IOpCl=  0 I1Cent=   200000004 NGrid=           0
         NMat0=    1 NMatS0=      1 NMatT0=    0 NMatD0=    1 NMtDS0=    0 NMtDT0=    0
 Petite list used in FoFCou.
 Requested convergence on RMS density matrix=1.00D-08 within 128 cycles.
 Requested convergence on MAX density matrix=1.00D-06.
 Requested convergence on             energy=1.00D-06.
 No special actions if energy rises.
 Integral accuracy reduced to 1.0D-05 until final iterations.
 Initial convergence to 1.0D-05 achieved.  Increase integral accuracy.
 SCF Done:  E(RCAM-B3LYP) =  -837.381690071     A.U. after   16 cycles
            NFock= 16  Conv=0.41D-08     -V/T= 2.0091
 DoSCS=F DFT=T ScalE2(SS,OS)=  1.000000  1.000000
 ExpMin= 1.61D-01 ExpMax= 5.48D+03 ExpMxC= 8.25D+02 IAcc=3 IRadAn=         5 AccDes= 0.00D+00
 HarFok:  IExCor=  205 AccDes= 0.00D+00 IRadAn=         5 IDoV=-2 UseB2=F ITyADJ=14
 ICtDFT= 12500011 ScaDFX=  1.000000  1.000000  1.000000  1.000000
 Range of M.O.s used for correlation:    19   294
 NBasis=   294 NAE=    64 NBE=    64 NFC=    18 NFV=     0
 NROrb=    276 NOA=    46 NOB=    46 NVA=   230 NVB=   230
 Orbital symmetries:
       Occupied  (A) (A) (A) (A) (A) (A) (A) (A) (A) (A) (A) (A)
                 (A) (A) (A) (A) (A) (A) (A) (A) (A) (A) (A) (A)
                 (A) (A) (A) (A) (A) (A) (A) (A) (A) (A) (A) (A)
                 (A) (A) (A) (A) (A) (A) (A) (A) (A) (A) (A) (A)
                 (A) (A) (A) (A) (A) (A) (A) (A) (A) (A) (A) (A)
                 (A) (A) (A) (A)
       Virtual   (A) (A) (A) (A) (A) (A) (A) (A) (A) (A) (A) (A)
                 (A) (A) (A) (A) (A) (A) (A) (A) (A) (A) (A) (A)
                 (A) (A) (A) (A) (A) (A) (A) (A) (A) (A) (A) (A)
                 (A) (A) (A) (A) (A) (A) (A) (A) (A) (A) (A) (A)
                 (A) (A) (A) (A) (A) (A) (A) (A) (A) (A) (A) (A)
                 (A) (A) (A) (A) (A) (A) (A) (A) (A) (A) (A) (A)
                 (A) (A) (A) (A) (A) (A) (A) (A) (A) (A) (A) (A)
                 (A) (A) (A) (A) (A) (A) (A) (A) (A) (A) (A) (A)
                 (A) (A) (A) (A) (A) (A) (A) (A) (A) (A) (A) (A)
                 (A) (A) (A) (A) (A) (A) (A) (A) (A) (A) (A) (A)
                 (A) (A) (A) (A) (A) (A) (A) (A) (A) (A) (A) (A)
                 (A) (A) (A) (A) (A) (A) (A) (A) (A) (A) (A) (A)
                 (A) (A) (A) (A) (A) (A) (A) (A) (A) (A) (A) (A)
                 (A) (A) (A) (A) (A) (A) (A) (A) (A) (A) (A) (A)
                 (A) (A) (A) (A) (A) (A) (A) (A) (A) (A) (A) (A)
                 (A) (A) (A) (A) (A) (A) (A) (A) (A) (A) (A) (A)
                 (A) (A) (A) (A) (A) (A) (A) (A) (A) (A) (A) (A)
                 (A) (A) (A) (A) (A) (A) (A) (A) (A) (A) (A) (A)
                 (A) (A) (A) (A) (A) (A) (A) (A) (A) (A) (A) (A)
                 (A) (A)
    80 initial guesses have been made.
 Convergence on wavefunction:    0.001000000000000
 Iteration     1 Dimension    80 NMult     0 NNew     80
 CISAX will form    80 AO SS matrices at one time.
 New state      1 was old state      3
 New state      2 was old state      1
 New state      3 was old state      2
 New state      4 was old state     29
 New state      6 was old state      4
 New state      7 was old state      6
 New state      8 was old state      9
 New state      9 was old state     10
 New state     10 was old state     11
 New state     11 was old state      8
 New state     12 was old state     14
 New state     13 was old state      7
 New state     14 was old state     12
 New state     15 was old state     24
 New state     16 was old state     22
 New state     17 was old state     15
 New state     18 was old state     13
 Iteration     2 Dimension   120 NMult    80 NNew     40
 New state      8 was old state     10
 New state      9 was old state      8
 New state     10 was old state      9
 New state     12 was old state     13
 New state     13 was old state     12
 Iteration     3 Dimension   160 NMult   120 NNew     40
 New state     19 was old state     20
 New state     20 was old state     19
 Iteration     4 Dimension   200 NMult   160 NNew     40
 Iteration     5 Dimension   228 NMult   200 NNew     28
 Iteration     6 Dimension   232 NMult   228 NNew      4
 ***********************************************************************
 Excited states from <AA,BB:AA,BB> singles matrix:
 ***********************************************************************
 
 Ground to excited state transition densities written to RWF  633
 Ground to excited state transition electric dipole moments (Au):
       state          X           Y           Z        Dip. S.      Osc.
         1        -0.7671      0.3310     -0.0802      0.7044      0.0737
         2        -1.0119      0.4480     -0.0533      1.2276      0.1345
         3         0.3537      0.1657      0.1342      0.1705      0.0202
         4         0.2400      0.5164      0.1282      0.3408      0.0474
         5         0.9295      0.5563      0.1708      1.2026      0.1709
         6         0.3524      1.1108      0.4251      1.5386      0.2220
         7         0.2783     -0.3554     -0.1169      0.2174      0.0330
         8         0.7351      0.3437      0.2595      0.7258      0.1147
         9        -0.0199      0.1750      0.0861      0.0384      0.0062
        10         0.2357      0.2336      0.0414      0.1118      0.0182
        11        -0.3365     -0.6835     -0.0014      0.5804      0.0952
        12         0.7943     -0.1633      0.3384      0.7721      0.1284
        13         0.2101      0.1366     -0.1256      0.0786      0.0136
        14        -0.5602     -0.4087     -0.2350      0.5361      0.0930
        15        -0.0387      0.0856      0.0812      0.0154      0.0028
        16         0.5400     -0.3246      0.1285      0.4134      0.0748
        17        -0.4786      0.1691     -0.0312      0.2586      0.0471
        18        -0.0864     -0.0800     -0.0941      0.0227      0.0042
        19         0.3255     -0.0194      0.0087      0.1064      0.0197
        20        -0.0935     -0.1596     -0.0444      0.0362      0.0067
 Ground to excited state transition velocity dipole moments (Au):
       state          X           Y           Z        Dip. S.      Osc.
         1         0.1211     -0.0479      0.0191      0.0173      0.0737
         2         0.1681     -0.0716      0.0071      0.0334      0.1356
         3        -0.0648     -0.0271     -0.0239      0.0055      0.0207
         4        -0.0376     -0.1063     -0.0264      0.0134      0.0428
         5        -0.1850     -0.1154     -0.0336      0.0487      0.1521
         6        -0.0707     -0.2346     -0.0874      0.0677      0.2084
         7        -0.0624      0.0849      0.0261      0.0118      0.0345
         8        -0.1721     -0.0770     -0.0589      0.0390      0.1097
         9         0.0141     -0.0499     -0.0214      0.0032      0.0087
        10        -0.0705     -0.0649      0.0272      0.0099      0.0272
        11         0.0843      0.1604      0.0188      0.0332      0.0900
        12        -0.2016      0.0409     -0.0904      0.0505      0.1349
        13        -0.0521     -0.0302      0.0369      0.0050      0.0128
        14         0.1387      0.1057      0.0650      0.0346      0.0887
        15         0.0083     -0.0201     -0.0296      0.0013      0.0033
        16        -0.1467      0.0838     -0.0416      0.0303      0.0743
        17         0.1265     -0.0441      0.0036      0.0180      0.0438
        18         0.0262      0.0224      0.0273      0.0019      0.0047
        19        -0.0850      0.0072     -0.0043      0.0073      0.0175
        20         0.0316      0.0467     -0.0110      0.0033      0.0079
 Ground to excited state transition magnetic dipole moments (Au):
       state          X           Y           Z
         1         0.5406      0.4480     -0.5438
         2        -0.3241     -0.4552     -0.8914
         3         0.0458      0.1512     -0.3564
         4        -0.1251     -0.4461      0.2052
         5        -0.3140      0.2037      1.2251
         6         0.0686      0.6626     -1.2719
         7        -0.0968      0.1458      1.1218
         8        -0.1735     -0.1952      0.2093
         9         0.1417     -0.2528      0.5439
        10        -0.1064     -0.4162     -0.1605
        11         0.0007     -0.6850      0.1874
        12         0.2511      0.3599     -0.6144
        13         0.0849      0.5843      0.0900
        14         0.2133      0.0336      0.2627
        15        -0.2617     -0.4543     -0.1972
        16        -0.0078      0.0975      0.3657
        17        -0.3672     -0.4520      0.9961
        18         0.0985      0.0667     -0.4677
        19         0.1759      0.0970      0.2557
        20         0.1770      0.1836      0.1384
 Ground to excited state transition velocity quadrupole moments (Au):
       state          XX          YY          ZZ          XY          XZ          YZ
         1         0.2326      0.1019     -0.1128     -0.0712     -0.0686      0.2042
         2         0.3069      0.0230      0.0110     -0.0328      0.0771      0.0530
         3        -0.4273      0.0841      0.0503      0.0744     -0.0667      0.0563
         4        -0.4802      0.1961      0.0530     -0.4216     -0.2141      0.0291
         5        -0.3653      0.1510      0.0866     -0.3010     -0.2149      0.0211
         6        -0.5016      0.2798      0.0149     -0.9034     -0.2761      0.1072
         7        -0.1247      0.3376     -0.0423      0.1342     -0.0856      0.0125
         8        -0.6614      0.3875      0.0798     -0.3168     -0.1112      0.0080
         9         0.3521     -0.2487     -0.0302      0.0157      0.1062      0.1551
        10        -0.3668     -0.0347      0.1499     -0.0992      0.2581     -0.0156
        11        -0.3307      0.5890     -0.1517     -0.0331      0.1897     -0.0699
        12        -1.7419      0.8436      0.0653      0.0120     -0.2459      0.1987
        13        -0.1044     -0.0019     -0.0445     -0.1738     -0.2640     -0.0962
        14         0.6372      0.1213     -0.1896      0.0239      0.0609     -0.0358
        15         0.0684     -0.1152      0.0867      0.0137      0.1129     -0.0960
        16        -0.5831     -0.0563      0.0426      0.2105      0.0137     -0.1167
        17        -0.3286      0.6197     -0.2464     -0.3037     -0.2454      0.0764
        18         0.4510     -0.1055     -0.0220      0.1493      0.0488     -0.1018
        19         0.9975     -1.0378      0.0328      0.0873      0.3105     -0.1866
        20         0.1245      0.0024     -0.0069      0.1228     -0.1726      0.0994
 <0|del|b> * <b|rxdel|0> + <0|del|b> * <b|delr+rdel|0>
 Rotatory Strengths (R) in cgs (10**-40 erg-esu-cm/Gauss)
       state          XX          YY          ZZ    R(velocity)    E-M Angle
         1       -82.3113    182.9618     50.8272     50.4926       73.30
         2        67.7974   -111.2695    -78.1341    -40.5354       98.45
         3         1.6319      7.3281     -3.2235      1.9122       87.15
         4        51.4661    -21.9246    128.7103     52.7506       37.25
         5      -131.6654      4.6935    104.9259     -7.3487       91.35
         6       -49.1664     32.3234   -143.6343    -53.4924       97.56
         7        81.3705     48.1686     18.5246     49.3546       67.24
         8        19.0822     -3.7035     81.7616     32.3801       60.49
         9         8.7411    -10.4611     10.4720      2.9173       85.05
        10        53.2857     10.0609     24.1835     29.1767       48.71
        11      -197.5433     -2.4124   -105.6595   -101.8717      145.25
        12       112.3127    -48.2368     -8.3613     18.5715       83.35
        13       -39.2315     14.1047    -26.0901    -17.0723      116.40
        14        21.4138     54.5755     60.5388     45.5094       37.49
        15        22.0289      4.2663      7.1771     11.1575       51.55
        16       -22.0862     15.3642     -8.6775     -5.1331       95.15
        17        15.0320    -41.4599    -32.8391    -19.7557       98.52
        18       -10.6380    -21.7255     10.0604     -7.4343      114.17
        19        -3.8175      0.2390    -35.4584    -13.0123      123.54
        20        17.3908     10.8405      3.7506     10.6606       40.65
 1/2[<0|r|b>*<b|rxdel|0> + (<0|rxdel|b>*<b|r|0>)*]
 Rotatory Strengths (R) in cgs (10**-40 erg-esu-cm/Gauss)
       state          XX          YY          ZZ     R(length)
         1       293.2428   -104.8817    -30.8567     52.5014
         2      -231.9017    144.2059    -33.5791    -40.4250
         3       -11.4490    -17.7193     33.8181      1.5499
         4        21.2307    162.9327    -18.5998     55.1878
         5       206.3668    -80.1582   -147.9442     -7.2452
         6       -17.0921   -520.4236    382.3256    -51.7301
         7        19.0557     36.6380     92.7080     49.4672
         8        90.1771     47.4615    -38.4173     33.0738
         9         1.9907     31.2993    -33.1131      0.0590
        10        17.7321     68.7421      4.7034     30.3925
        11         0.1653   -331.0837      0.1872   -110.2437
        12      -141.0466     41.5494    147.0262     15.8430
        13       -12.6122    -56.4294      7.9939    -20.3492
        14        84.5119      9.7203     43.6574     45.9632
        15        -7.1529     27.4958     11.3190     10.5540
        16         2.9651     22.3838    -33.2294     -2.6268
        17      -124.2863     54.0477     21.9888    -16.0832
        18         6.0171      3.7705    -31.1118     -7.1081
        19       -40.4916      1.3320     -1.5723    -13.5773
        20        11.7020     20.7248      4.3499     12.2589
  1/2[<0|del|b>*<b|r|0> + (<0|r|b>*<b|del|0>)*] (Au)
       state          X           Y           Z        Dip. S.   Osc.(frdel)
         1        -0.0929     -0.0159     -0.0015      0.1103      0.0735
         2        -0.1701     -0.0321     -0.0004      0.2026      0.1350
         3        -0.0229     -0.0045     -0.0032      0.0306      0.0204
         4        -0.0090     -0.0549     -0.0034      0.0673      0.0449
         5        -0.1719     -0.0642     -0.0057      0.2419      0.1612
         6        -0.0249     -0.2606     -0.0371      0.3226      0.2151
         7        -0.0174     -0.0302     -0.0030      0.0506      0.0337
         8        -0.1265     -0.0265     -0.0153      0.1683      0.1122
         9        -0.0003     -0.0087     -0.0018      0.0109      0.0072
        10        -0.0166     -0.0152      0.0011      0.0306      0.0204
        11        -0.0284     -0.1097     -0.0000      0.1380      0.0920
        12        -0.1601     -0.0067     -0.0306      0.1974      0.1316
        13        -0.0109     -0.0041     -0.0046      0.0197      0.0131
        14        -0.0777     -0.0432     -0.0153      0.1362      0.0908
        15        -0.0003     -0.0017     -0.0024      0.0044      0.0030
        16        -0.0792     -0.0272     -0.0053      0.1117      0.0745
        17        -0.0606     -0.0075     -0.0001      0.0681      0.0454
        18        -0.0023     -0.0018     -0.0026      0.0066      0.0044
        19        -0.0277     -0.0001     -0.0000      0.0278      0.0186
        20        -0.0030     -0.0075      0.0005      0.0099      0.0066

 Excitation energies and oscillator strengths:
 
 Excited State   1:      Singlet-A      4.2688 eV  290.44 nm  f=0.0737  <S**2>=0.000
      62 -> 65        -0.46430
      62 -> 66         0.11808
      62 -> 68        -0.13228
      64 -> 65         0.46757
 
 Excited State   2:      Singlet-A      4.4710 eV  277.31 nm  f=0.1345  <S**2>=0.000
      62 -> 65         0.44272
      64 -> 65         0.50707
 
 Excited State   3:      Singlet-A      4.8233 eV  257.05 nm  f=0.0202  <S**2>=0.000
      61 -> 65        -0.13277
      63 -> 65         0.54395
      64 -> 66        -0.36839
      64 -> 67        -0.12325
 
 Excited State   4:      Singlet-A      5.6791 eV  218.32 nm  f=0.0474  <S**2>=0.000
      59 -> 67        -0.17826
      60 -> 66         0.17924
      60 -> 67        -0.28956
      61 -> 66        -0.11848
      61 -> 67         0.21730
      62 -> 66        -0.18370
      62 -> 67         0.25395
      63 -> 65         0.17511
      64 -> 66         0.29955
      64 -> 67        -0.21366
 
 Excited State   5:      Singlet-A      5.8014 eV  213.71 nm  f=0.1709  <S**2>=0.000
      60 -> 65         0.10385
      61 -> 65         0.60361
      63 -> 65         0.23405
      64 -> 66         0.10961
 
 Excited State   6:      Singlet-A      5.8900 eV  210.50 nm  f=0.2220  <S**2>=0.000
      59 -> 67         0.11415
      60 -> 67         0.13179
      61 -> 65        -0.28480
      61 -> 66         0.12902
      61 -> 67        -0.11778
      62 -> 67        -0.10620
      63 -> 65         0.27497
      64 -> 66         0.47967
 
 Excited State   7:      Singlet-A      6.1957 eV  200.11 nm  f=0.0330  <S**2>=0.000
      60 -> 65        -0.12701
      63 -> 65        -0.13936
      63 -> 66         0.47242
      64 -> 67        -0.32281
      64 -> 68        -0.26282
      64 -> 69         0.13407
 
 Excited State   8:      Singlet-A      6.4519 eV  192.17 nm  f=0.1147  <S**2>=0.000
      59 -> 67        -0.10965
      61 -> 67         0.10022
      63 -> 66         0.30506
      63 -> 67         0.15479
      64 -> 67         0.54487
      64 -> 68        -0.11870
 
 Excited State   9:      Singlet-A      6.5585 eV  189.04 nm  f=0.0062  <S**2>=0.000
      60 -> 66         0.11632
      60 -> 67        -0.18700
      61 -> 66        -0.17653
      61 -> 67         0.13352
      62 -> 65         0.13244
      62 -> 66         0.49674
      62 -> 67        -0.27040
      63 -> 66        -0.13125
      64 -> 68        -0.10900
 
 Excited State  10:      Singlet-A      6.6269 eV  187.09 nm  f=0.0182  <S**2>=0.000
      60 -> 65        -0.14767
      60 -> 69        -0.11625
      63 -> 69        -0.10069
      64 -> 68         0.45058
      64 -> 69         0.43909
 
 Excited State  11:      Singlet-A      6.6937 eV  185.23 nm  f=0.0952  <S**2>=0.000
      60 -> 65         0.54304
      61 -> 65        -0.11443
      64 -> 68        -0.15813
      64 -> 69         0.34062
 
 Excited State  12:      Singlet-A      6.7883 eV  182.64 nm  f=0.1284  <S**2>=0.000
      60 -> 65         0.33234
      61 -> 66         0.10300
      62 -> 66         0.15920
      63 -> 66         0.33314
      64 -> 68         0.31379
      64 -> 69        -0.29227
 
 Excited State  13:      Singlet-A      7.0499 eV  175.87 nm  f=0.0136  <S**2>=0.000
      60 -> 66        -0.12985
      61 -> 66        -0.15247
      61 -> 67        -0.12939
      62 -> 65         0.15722
      62 -> 66         0.25140
      62 -> 67         0.48636
      62 -> 68        -0.18690
      62 -> 69         0.10417
      63 -> 67        -0.14205
 
 Excited State  14:      Singlet-A      7.0785 eV  175.16 nm  f=0.0930  <S**2>=0.000
      60 -> 66         0.18273
      61 -> 66         0.49571
      62 -> 67         0.13700
      62 -> 68        -0.15265
      63 -> 67         0.14742
      63 -> 68         0.19227
      63 -> 69        -0.12817
      63 -> 70        -0.11678
 
 Excited State  15:      Singlet-A      7.3518 eV  168.65 nm  f=0.0028  <S**2>=0.000
      59 -> 65         0.14509
      61 -> 66         0.12167
      62 -> 65        -0.11151
      62 -> 66         0.26462
      62 -> 67         0.23465
      62 -> 68         0.44341
      62 -> 69        -0.27052
 
 Excited State  16:      Singlet-A      7.3867 eV  167.85 nm  f=0.0748  <S**2>=0.000
      59 -> 65         0.10498
      61 -> 66        -0.16285
      62 -> 67         0.10620
      63 -> 67         0.52310
      63 -> 68         0.22158
      64 -> 68         0.13654
      64 -> 72         0.15707
 
 Excited State  17:      Singlet-A      7.4397 eV  166.65 nm  f=0.0471  <S**2>=0.000
      57 -> 65         0.11430
      59 -> 65         0.14121
      63 -> 67        -0.15243
      63 -> 69         0.12624
      64 -> 70         0.56063
      64 -> 71        -0.22280
      64 -> 72         0.13774
 
 Excited State  18:      Singlet-A      7.4896 eV  165.54 nm  f=0.0042  <S**2>=0.000
      57 -> 65        -0.12057
      59 -> 65        -0.14252
      63 -> 67        -0.18100
      63 -> 68         0.17003
      63 -> 69         0.21403
      64 -> 70        -0.20957
      64 -> 72         0.48946
 
 Excited State  19:      Singlet-A      7.5651 eV  163.89 nm  f=0.0197  <S**2>=0.000
      55 -> 65         0.12146
      56 -> 65        -0.15149
      57 -> 65         0.14387
      58 -> 65        -0.15312
      59 -> 65         0.45075
      63 -> 67        -0.21860
      63 -> 68         0.23416
      63 -> 69        -0.11990
      64 -> 70        -0.19347
 
 Excited State  20:      Singlet-A      7.6065 eV  163.00 nm  f=0.0067  <S**2>=0.000
      63 -> 68         0.33557
      63 -> 69         0.39350
      63 -> 72         0.17577
      64 -> 72        -0.34270
 This state for optimization and/or second-order correction.
 Total Energy, E(TD-HF/TD-DFT) =  -837.102155998    
 Copying the excited state density for this state as the 1-particle RhoCI density.
 SavETr:  write IOETrn=   770 NScale= 10 NData=  16 NLR=1 NState=   20 LETran=     370.

 **********************************************************************

            Population analysis using the SCF density.

 **********************************************************************

 Orbital symmetries:
       Occupied  (A) (A) (A) (A) (A) (A) (A) (A) (A) (A) (A) (A)
                 (A) (A) (A) (A) (A) (A) (A) (A) (A) (A) (A) (A)
                 (A) (A) (A) (A) (A) (A) (A) (A) (A) (A) (A) (A)
                 (A) (A) (A) (A) (A) (A) (A) (A) (A) (A) (A) (A)
                 (A) (A) (A) (A) (A) (A) (A) (A) (A) (A) (A) (A)
                 (A) (A) (A) (A)
       Virtual   (A) (A) (A) (A) (A) (A) (A) (A) (A) (A) (A) (A)
                 (A) (A) (A) (A) (A) (A) (A) (A) (A) (A) (A) (A)
                 (A) (A) (A) (A) (A) (A) (A) (A) (A) (A) (A) (A)
                 (A) (A) (A) (A) (A) (A) (A) (A) (A) (A) (A) (A)
                 (A) (A) (A) (A) (A) (A) (A) (A) (A) (A) (A) (A)
                 (A) (A) (A) (A) (A) (A) (A) (A) (A) (A) (A) (A)
                 (A) (A) (A) (A) (A) (A) (A) (A) (A) (A) (A) (A)
                 (A) (A) (A) (A) (A) (A) (A) (A) (A) (A) (A) (A)
                 (A) (A) (A) (A) (A) (A) (A) (A) (A) (A) (A) (A)
                 (A) (A) (A) (A) (A) (A) (A) (A) (A) (A) (A) (A)
                 (A) (A) (A) (A) (A) (A) (A) (A) (A) (A) (A) (A)
                 (A) (A) (A) (A) (A) (A) (A) (A) (A) (A) (A) (A)
                 (A) (A) (A) (A) (A) (A) (A) (A) (A) (A) (A) (A)
                 (A) (A) (A) (A) (A) (A) (A) (A) (A) (A) (A) (A)
                 (A) (A) (A) (A) (A) (A) (A) (A) (A) (A) (A) (A)
                 (A) (A) (A) (A) (A) (A) (A) (A) (A) (A) (A) (A)
                 (A) (A) (A) (A) (A) (A) (A) (A) (A) (A) (A) (A)
                 (A) (A) (A) (A) (A) (A) (A) (A) (A) (A) (A) (A)
                 (A) (A) (A) (A) (A) (A) (A) (A) (A) (A) (A) (A)
                 (A) (A)
 The electronic state is 1-A.
 Alpha  occ. eigenvalues --  -19.26439 -19.26112 -19.20094 -14.45382 -14.37745
 Alpha  occ. eigenvalues --  -10.38819 -10.33333 -10.30339 -10.29414 -10.29337
 Alpha  occ. eigenvalues --  -10.29224 -10.26458 -10.26330 -10.26317 -10.26152
 Alpha  occ. eigenvalues --  -10.26096 -10.25238 -10.24179  -1.17844  -1.15112
 Alpha  occ. eigenvalues --   -1.08317  -1.06257  -0.99147  -0.92458  -0.88481
 Alpha  occ. eigenvalues --   -0.85647  -0.82078  -0.79582  -0.78397  -0.74457
 Alpha  occ. eigenvalues --   -0.71131  -0.68533  -0.67415  -0.64246  -0.63803
 Alpha  occ. eigenvalues --   -0.59762  -0.58700  -0.55792  -0.54780  -0.54617
 Alpha  occ. eigenvalues --   -0.54010  -0.52321  -0.51019  -0.49968  -0.49072
 Alpha  occ. eigenvalues --   -0.47782  -0.47710  -0.46942  -0.46457  -0.45564
 Alpha  occ. eigenvalues --   -0.45213  -0.43884  -0.43427  -0.42959  -0.41102
 Alpha  occ. eigenvalues --   -0.40345  -0.39461  -0.36955  -0.35991  -0.32718
 Alpha  occ. eigenvalues --   -0.30533  -0.28341  -0.27478  -0.24408
 Alpha virt. eigenvalues --    0.01106   0.05657   0.07960   0.10262   0.10556
 Alpha virt. eigenvalues --    0.13022   0.13618   0.14082   0.15270   0.17383
 Alpha virt. eigenvalues --    0.18537   0.19887   0.21430   0.22001   0.23190
 Alpha virt. eigenvalues --    0.23957   0.25149   0.25668   0.27355   0.28037
 Alpha virt. eigenvalues --    0.28731   0.29341   0.30975   0.32486   0.33372
 Alpha virt. eigenvalues --    0.33724   0.35853   0.38278   0.38847   0.41877
 Alpha virt. eigenvalues --    0.42876   0.43939   0.46156   0.47115   0.49995
 Alpha virt. eigenvalues --    0.53212   0.54336   0.56223   0.57867   0.59006
 Alpha virt. eigenvalues --    0.59556   0.60187   0.61129   0.61461   0.62326
 Alpha virt. eigenvalues --    0.63165   0.64213   0.64771   0.65963   0.66668
 Alpha virt. eigenvalues --    0.67367   0.68295   0.68980   0.69872   0.70637
 Alpha virt. eigenvalues --    0.71110   0.72040   0.74059   0.75363   0.76153
 Alpha virt. eigenvalues --    0.77473   0.79525   0.79797   0.80419   0.82599
 Alpha virt. eigenvalues --    0.83554   0.84170   0.85842   0.86461   0.87148
 Alpha virt. eigenvalues --    0.87989   0.88231   0.90241   0.91465   0.92413
 Alpha virt. eigenvalues --    0.92600   0.92931   0.93772   0.94432   0.95853
 Alpha virt. eigenvalues --    0.96055   0.97320   0.99464   1.00079   1.00421
 Alpha virt. eigenvalues --    1.02907   1.03311   1.03988   1.05127   1.05905
 Alpha virt. eigenvalues --    1.07327   1.08422   1.09234   1.10007   1.10602
 Alpha virt. eigenvalues --    1.12972   1.15478   1.16899   1.18189   1.20132
 Alpha virt. eigenvalues --    1.22952   1.23994   1.27581   1.29458   1.29860
 Alpha virt. eigenvalues --    1.31782   1.33462   1.34797   1.37029   1.38301
 Alpha virt. eigenvalues --    1.40156   1.41929   1.43417   1.43667   1.45837
 Alpha virt. eigenvalues --    1.47527   1.47614   1.51244   1.52672   1.54586
 Alpha virt. eigenvalues --    1.55718   1.56812   1.58679   1.60492   1.64180
 Alpha virt. eigenvalues --    1.67217   1.68508   1.70729   1.72198   1.73261
 Alpha virt. eigenvalues --    1.76508   1.78283   1.80218   1.80850   1.81428
 Alpha virt. eigenvalues --    1.83173   1.83474   1.85937   1.87116   1.89593
 Alpha virt. eigenvalues --    1.90023   1.91083   1.91698   1.93393   1.94789
 Alpha virt. eigenvalues --    1.95195   1.99206   2.00446   2.01142   2.01642
 Alpha virt. eigenvalues --    2.03381   2.05047   2.06325   2.07925   2.08911
 Alpha virt. eigenvalues --    2.10600   2.12399   2.12737   2.14405   2.16317
 Alpha virt. eigenvalues --    2.16829   2.19019   2.20948   2.24165   2.25781
 Alpha virt. eigenvalues --    2.27685   2.31294   2.32086   2.33382   2.34614
 Alpha virt. eigenvalues --    2.35952   2.37335   2.39161   2.40464   2.41576
 Alpha virt. eigenvalues --    2.42439   2.45864   2.47602   2.49720   2.50541
 Alpha virt. eigenvalues --    2.52296   2.53587   2.55320   2.58849   2.59484
 Alpha virt. eigenvalues --    2.62461   2.63205   2.66020   2.68571   2.71363
 Alpha virt. eigenvalues --    2.73616   2.74592   2.74907   2.77078   2.79844
 Alpha virt. eigenvalues --    2.82001   2.83514   2.84860   2.86866   2.91881
 Alpha virt. eigenvalues --    2.94663   2.97842   3.02550   3.06547   3.07703
 Alpha virt. eigenvalues --    3.08706   3.12668   3.17025   3.23254   3.29107
 Alpha virt. eigenvalues --    3.40532   3.54836   3.90979   4.01274   4.13067
 Alpha virt. eigenvalues --    4.15800   4.17435   4.21493   4.24314   4.29701
 Alpha virt. eigenvalues --    4.32405   4.37029   4.39773   4.43492   4.46569
 Alpha virt. eigenvalues --    4.50188   4.61145   4.71893   4.74955   4.98399
          Condensed to atoms (all electrons):
               1          2          3          4          5          6
     1  O    8.206214   0.301049  -0.088500   0.001621  -0.000779   0.000003
     2  C    0.301049   4.395296   0.272539  -0.026215  -0.003224   0.000915
     3  C   -0.088500   0.272539   5.199688   0.297533  -0.027791   0.002540
     4  C    0.001621  -0.026215   0.297533   5.213067   0.351391  -0.083015
     5  C   -0.000779  -0.003224  -0.027791   0.351391   4.909742   0.507160
     6  C    0.000003   0.000915   0.002540  -0.083015   0.507160   5.022296
     7  N    0.000001  -0.000097  -0.000045   0.005202  -0.048043   0.315284
     8  C   -0.000028  -0.000044  -0.000353   0.012133  -0.008085  -0.140772
     9  C   -0.000001   0.000015  -0.000003  -0.000244   0.015302   0.004928
    10  O   -0.000000   0.000000  -0.000000   0.000000  -0.000135   0.000133
    11  C    0.000006  -0.000012   0.000008   0.000024  -0.000342  -0.000140
    12  C   -0.000273  -0.000007  -0.000082  -0.000405   0.010044  -0.000238
    13  C    0.001608   0.002363  -0.011652  -0.016965  -0.102137   0.017370
    14  C    0.004184  -0.004930  -0.070604   0.003651  -0.017542  -0.000291
    15  C   -0.000157  -0.000245   0.009130  -0.000513   0.000052   0.000004
    16  N   -0.000326  -0.032013   0.262641  -0.044401  -0.003562   0.000095
    17  C    0.000243  -0.000763  -0.002857  -0.059714   0.431589   0.019293
    18  O   -0.085618   0.557163  -0.073507   0.000205  -0.001202  -0.000320
    19  H    0.222808  -0.009387   0.010437  -0.000248   0.000032   0.000004
    20  H    0.001330  -0.045362   0.387152  -0.038661   0.005212  -0.000130
    21  H    0.000154  -0.005504  -0.021100   0.349595  -0.028340  -0.005667
    22  H   -0.000053   0.005847  -0.043965   0.373687  -0.030818  -0.000063
    23  H    0.000000  -0.000013   0.000049  -0.002574  -0.026063   0.368827
    24  H   -0.000000   0.000000   0.000002  -0.000079   0.003307  -0.028012
    25  H   -0.000000   0.000000   0.000000  -0.000000   0.000008   0.000003
    26  H    0.000000  -0.000000  -0.000000   0.000000   0.000008   0.000001
    27  H   -0.000004  -0.000001  -0.000008  -0.000001  -0.000148   0.000004
    28  H    0.000070   0.000032  -0.000203   0.000002  -0.000007  -0.000000
    29  H   -0.000000  -0.000003  -0.000218   0.000015   0.000031   0.000000
    30  H    0.000008   0.000019  -0.000120   0.000051  -0.000013  -0.000000
               7          8          9         10         11         12
     1  O    0.000001  -0.000028  -0.000001  -0.000000   0.000006  -0.000273
     2  C   -0.000097  -0.000044   0.000015   0.000000  -0.000012  -0.000007
     3  C   -0.000045  -0.000353  -0.000003  -0.000000   0.000008  -0.000082
     4  C    0.005202   0.012133  -0.000244   0.000000   0.000024  -0.000405
     5  C   -0.048043  -0.008085   0.015302  -0.000135  -0.000342   0.010044
     6  C    0.315284  -0.140772   0.004928   0.000133  -0.000140  -0.000238
     7  N    7.008497   0.270685  -0.094662  -0.001384   0.006988  -0.000429
     8  C    0.270685   4.917823   0.415168  -0.050076  -0.041236  -0.054469
     9  C   -0.094662   0.415168   4.727565   0.287706   0.486583   0.005208
    10  O   -0.001384  -0.050076   0.287706   8.237622  -0.069893   0.003550
    11  C    0.006988  -0.041236   0.486583  -0.069893   5.135974   0.445146
    12  C   -0.000429  -0.054469   0.005208   0.003550   0.445146   5.086941
    13  C    0.011412  -0.049381  -0.054423   0.000319  -0.012102   0.477655
    14  C   -0.000095   0.008969  -0.000316   0.000001   0.005981  -0.056802
    15  C    0.000001  -0.000150   0.000009  -0.000000   0.000139  -0.010203
    16  N    0.000003  -0.000083  -0.000015  -0.000000  -0.000097   0.006727
    17  C   -0.063072   0.444651  -0.037272   0.002677  -0.045163  -0.026969
    18  O    0.000000   0.000019   0.000000   0.000000  -0.000000   0.000001
    19  H   -0.000000  -0.000011   0.000001   0.000000  -0.000001   0.000013
    20  H    0.000000   0.000004  -0.000000   0.000000  -0.000000   0.000007
    21  H    0.000008  -0.000014   0.000003  -0.000000  -0.000000   0.000005
    22  H   -0.000022  -0.000162   0.000006  -0.000000  -0.000002   0.000009
    23  H   -0.048424   0.004692  -0.000117  -0.000000   0.000002   0.000003
    24  H    0.329570  -0.027159  -0.006858   0.004716   0.000055  -0.000026
    25  H   -0.000279   0.006267  -0.030300   0.251213  -0.006296   0.000515
    26  H   -0.000098   0.003993  -0.041227  -0.004574   0.350056  -0.026989
    27  H    0.000003   0.000713   0.003211  -0.000046  -0.038080   0.356199
    28  H    0.000000   0.000006  -0.000003   0.000000   0.000181  -0.001103
    29  H    0.000000  -0.000030   0.000010   0.000000  -0.000111   0.000224
    30  H   -0.000000   0.000002  -0.000000  -0.000000  -0.000001   0.000152
              13         14         15         16         17         18
     1  O    0.001608   0.004184  -0.000157  -0.000326   0.000243  -0.085618
     2  C    0.002363  -0.004930  -0.000245  -0.032013  -0.000763   0.557163
     3  C   -0.011652  -0.070604   0.009130   0.262641  -0.002857  -0.073507
     4  C   -0.016965   0.003651  -0.000513  -0.044401  -0.059714   0.000205
     5  C   -0.102137  -0.017542   0.000052  -0.003562   0.431589  -0.001202
     6  C    0.017370  -0.000291   0.000004   0.000095   0.019293  -0.000320
     7  N    0.011412  -0.000095   0.000001   0.000003  -0.063072   0.000000
     8  C   -0.049381   0.008969  -0.000150  -0.000083   0.444651   0.000019
     9  C   -0.054423  -0.000316   0.000009  -0.000015  -0.037272   0.000000
    10  O    0.000319   0.000001  -0.000000  -0.000000   0.002677   0.000000
    11  C   -0.012102   0.005981   0.000139  -0.000097  -0.045163  -0.000000
    12  C    0.477655  -0.056802  -0.010203   0.006727  -0.026969   0.000001
    13  C    5.091869   0.283301  -0.100060  -0.050974   0.426449  -0.000071
    14  C    0.283301   4.760960   0.349127   0.614019  -0.042222   0.000067
    15  C   -0.100060   0.349127   5.257557  -0.083747   0.004174   0.000001
    16  N   -0.050974   0.614019  -0.083747   6.819605  -0.017371   0.002315
    17  C    0.426449  -0.042222   0.004174  -0.017371   4.966080  -0.000785
    18  O   -0.000071   0.000067   0.000001   0.002315  -0.000785   8.054925
    19  H    0.000077  -0.000219  -0.000006  -0.000354   0.000009   0.010086
    20  H   -0.000270   0.002408  -0.000057  -0.052594   0.000403   0.000084
    21  H   -0.000097  -0.000077   0.000008   0.004063   0.004200   0.007650
    22  H    0.001764   0.000346  -0.000124  -0.003281  -0.004191   0.000109
    23  H   -0.000146   0.000001  -0.000000   0.000001   0.003361  -0.000010
    24  H   -0.000015   0.000001  -0.000000  -0.000000   0.006725  -0.000000
    25  H   -0.000064  -0.000001   0.000000   0.000000  -0.000042   0.000000
    26  H    0.002606  -0.000113   0.000001   0.000001   0.000978  -0.000000
    27  H   -0.030918  -0.012472   0.007862   0.000051   0.004026  -0.000000
    28  H    0.000771  -0.023565   0.360922  -0.001329   0.000089  -0.000000
    29  H    0.006218  -0.029672   0.360055   0.001028  -0.000206   0.000000
    30  H    0.004832  -0.026228   0.356825   0.010690  -0.000046  -0.000000
              19         20         21         22         23         24
     1  O    0.222808   0.001330   0.000154  -0.000053   0.000000  -0.000000
     2  C   -0.009387  -0.045362  -0.005504   0.005847  -0.000013   0.000000
     3  C    0.010437   0.387152  -0.021100  -0.043965   0.000049   0.000002
     4  C   -0.000248  -0.038661   0.349595   0.373687  -0.002574  -0.000079
     5  C    0.000032   0.005212  -0.028340  -0.030818  -0.026063   0.003307
     6  C    0.000004  -0.000130  -0.005667  -0.000063   0.368827  -0.028012
     7  N   -0.000000   0.000000   0.000008  -0.000022  -0.048424   0.329570
     8  C   -0.000011   0.000004  -0.000014  -0.000162   0.004692  -0.027159
     9  C    0.000001  -0.000000   0.000003   0.000006  -0.000117  -0.006858
    10  O    0.000000   0.000000  -0.000000  -0.000000  -0.000000   0.004716
    11  C   -0.000001  -0.000000  -0.000000  -0.000002   0.000002   0.000055
    12  C    0.000013   0.000007   0.000005   0.000009   0.000003  -0.000026
    13  C    0.000077  -0.000270  -0.000097   0.001764  -0.000146  -0.000015
    14  C   -0.000219   0.002408  -0.000077   0.000346   0.000001   0.000001
    15  C   -0.000006  -0.000057   0.000008  -0.000124  -0.000000  -0.000000
    16  N   -0.000354  -0.052594   0.004063  -0.003281   0.000001  -0.000000
    17  C    0.000009   0.000403   0.004200  -0.004191   0.003361   0.006725
    18  O    0.010086   0.000084   0.007650   0.000109  -0.000010  -0.000000
    19  H    0.354975  -0.000380  -0.000020   0.000006   0.000000   0.000000
    20  H   -0.000380   0.566563  -0.001269  -0.003723   0.000002  -0.000000
    21  H   -0.000020  -0.001269   0.562199  -0.032543   0.002650  -0.000005
    22  H    0.000006  -0.003723  -0.032543   0.572472   0.000020   0.000002
    23  H    0.000000   0.000002   0.002650   0.000020   0.538162  -0.001793
    24  H    0.000000  -0.000000  -0.000005   0.000002  -0.001793   0.374990
    25  H    0.000000   0.000000   0.000000   0.000000  -0.000000  -0.000192
    26  H   -0.000000   0.000000   0.000000  -0.000000  -0.000000   0.000000
    27  H   -0.000000   0.000000  -0.000000   0.000000  -0.000000  -0.000000
    28  H    0.000002  -0.000000   0.000000   0.000002  -0.000000   0.000000
    29  H   -0.000000   0.000003  -0.000000   0.000001  -0.000000   0.000000
    30  H    0.000000  -0.000077  -0.000001   0.000012   0.000000   0.000000
              25         26         27         28         29         30
     1  O   -0.000000   0.000000  -0.000004   0.000070  -0.000000   0.000008
     2  C    0.000000  -0.000000  -0.000001   0.000032  -0.000003   0.000019
     3  C    0.000000  -0.000000  -0.000008  -0.000203  -0.000218  -0.000120
     4  C   -0.000000   0.000000  -0.000001   0.000002   0.000015   0.000051
     5  C    0.000008   0.000008  -0.000148  -0.000007   0.000031  -0.000013
     6  C    0.000003   0.000001   0.000004  -0.000000   0.000000  -0.000000
     7  N   -0.000279  -0.000098   0.000003   0.000000   0.000000  -0.000000
     8  C    0.006267   0.003993   0.000713   0.000006  -0.000030   0.000002
     9  C   -0.030300  -0.041227   0.003211  -0.000003   0.000010  -0.000000
    10  O    0.251213  -0.004574  -0.000046   0.000000   0.000000  -0.000000
    11  C   -0.006296   0.350056  -0.038080   0.000181  -0.000111  -0.000001
    12  C    0.000515  -0.026989   0.356199  -0.001103   0.000224   0.000152
    13  C   -0.000064   0.002606  -0.030918   0.000771   0.006218   0.004832
    14  C   -0.000001  -0.000113  -0.012472  -0.023565  -0.029672  -0.026228
    15  C    0.000000   0.000001   0.007862   0.360922   0.360055   0.356825
    16  N    0.000000   0.000001   0.000051  -0.001329   0.001028   0.010690
    17  C   -0.000042   0.000978   0.004026   0.000089  -0.000206  -0.000046
    18  O    0.000000  -0.000000  -0.000000  -0.000000   0.000000  -0.000000
    19  H    0.000000  -0.000000  -0.000000   0.000002  -0.000000   0.000000
    20  H    0.000000   0.000000   0.000000  -0.000000   0.000003  -0.000077
    21  H    0.000000   0.000000  -0.000000   0.000000  -0.000000  -0.000001
    22  H    0.000000  -0.000000   0.000000   0.000002   0.000001   0.000012
    23  H   -0.000000  -0.000000  -0.000000  -0.000000  -0.000000   0.000000
    24  H   -0.000192   0.000000  -0.000000   0.000000   0.000000   0.000000
    25  H    0.354675   0.006303  -0.000009  -0.000000  -0.000000  -0.000000
    26  H    0.006303   0.593145  -0.005160  -0.000002  -0.000005  -0.000000
    27  H   -0.000009  -0.005160   0.577113   0.002199   0.000550  -0.000083
    28  H   -0.000000  -0.000002   0.002199   0.557483  -0.034203  -0.021511
    29  H   -0.000000  -0.000005   0.000550  -0.034203   0.561271  -0.020508
    30  H   -0.000000  -0.000000  -0.000083  -0.021511  -0.020508   0.517185
 Mulliken charges:
               1
     1  O   -0.563560
     2  C    0.592581
     3  C   -0.100709
     4  C   -0.335143
     5  C    0.064352
     6  C   -0.000214
     7  N   -0.691006
     8  C    0.286926
     9  C    0.319724
    10  O   -0.661829
    11  C   -0.217671
    12  C   -0.214404
    13  C    0.100661
    14  C    0.252134
    15  C   -0.510603
    16  N   -0.431090
    17  C   -0.014278
    18  O   -0.471113
    19  H    0.412178
    20  H    0.179354
    21  H    0.164103
    22  H    0.164665
    23  H    0.161370
    24  H    0.344768
    25  H    0.418199
    26  H    0.121075
    27  H    0.134998
    28  H    0.160168
    29  H    0.155550
    30  H    0.178812
 Sum of Mulliken charges =  -0.00000
 Mulliken charges with hydrogens summed into heavy atoms:
               1
     1  O   -0.151382
     2  C    0.592581
     3  C    0.078646
     4  C   -0.006375
     5  C    0.064352
     6  C    0.161156
     7  N   -0.346237
     8  C    0.286926
     9  C    0.319724
    10  O   -0.243630
    11  C   -0.096596
    12  C   -0.079406
    13  C    0.100661
    14  C    0.252134
    15  C   -0.016073
    16  N   -0.431090
    17  C   -0.014278
    18  O   -0.471113
 Electronic spatial extent (au):  <R**2>=           3872.3213
 Charge=             -0.0000 electrons
 Dipole moment (field-independent basis, Debye):
    X=              4.3245    Y=              0.1239    Z=              0.5846  Tot=              4.3656
 Quadrupole moment (field-independent basis, Debye-Ang):
   XX=            -93.5946   YY=            -95.9108   ZZ=            -98.5795
   XY=              0.4769   XZ=              3.8345   YZ=              6.8989
 Traceless Quadrupole moment (field-independent basis, Debye-Ang):
   XX=              2.4337   YY=              0.1175   ZZ=             -2.5512
   XY=              0.4769   XZ=              3.8345   YZ=              6.8989
 Octapole moment (field-independent basis, Debye-Ang**2):
  XXX=             79.9693  YYY=            -13.8037  ZZZ=             40.8824  XYY=             38.8879
  XXY=              6.5781  XXZ=             25.9997  XZZ=             -9.8727  YZZ=             -3.6824
  YYZ=            -10.6560  XYZ=             -0.2045
 Hexadecapole moment (field-independent basis, Debye-Ang**3):
 XXXX=          -2348.7253 YYYY=          -1569.2519 ZZZZ=           -506.7836 XXXY=            100.2365
 XXXZ=             84.5578 YYYX=            -87.9128 YYYZ=             53.0390 ZZZX=            -61.2453
 ZZZY=            -15.3636 XXYY=           -717.3188 XXZZ=           -515.3185 YYZZ=           -393.5613
 XXYZ=             60.9628 YYXZ=             21.6863 ZZXY=              6.0495
 N-N= 1.328524291797D+03 E-N=-4.609075271953D+03  KE= 8.298152820794D+02
 1\1\GINC-C040\SP\RCAM-B3LYP TD-FC\6-31G(d)\C13H12N2O3\XYCAO\28-Dec-202
 3\0\\# td=(nstates=20,root=20) cam-b3lyp/6-31g(d)\\Title\\0,1\O,0,-2.1
 59581,0.179328,1.929219\C,0,-2.330705,-0.820067,1.03793\C,0,-2.429413,
 -0.354658,-0.419991\C,0,-1.593996,-1.296847,-1.324451\C,0,-0.154186,-1
 .322407,-0.920525\C,0,0.710978,-2.390401,-0.896725\N,0,1.946065,-1.982
 44,-0.43705\C,0,1.884233,-0.640319,-0.140653\C,0,2.875125,0.211957,0.3
 55642\O,0,4.107515,-0.327305,0.608271\C,0,2.532082,1.545353,0.552419\C
 ,0,1.23754,2.008738,0.256133\C,0,0.222825,1.172995,-0.223604\C,0,-1.13
 0171,1.705921,-0.533061\C,0,-1.239481,3.205701,-0.754288\N,0,-2.242829
 ,1.069652,-0.644786\C,0,0.57363,-0.188694,-0.428933\O,0,-2.445949,-1.9
 79767,1.373375\H,0,-2.139102,-0.254496,2.803526\H,0,-3.482177,-0.55195
 9,-0.670394\H,0,-2.024771,-2.301778,-1.273005\H,0,-1.718346,-0.939743,
 -2.35513\H,0,0.5375,-3.423023,-1.166896\H,0,2.758836,-2.564299,-0.3099
 64\H,0,4.692509,0.36977,0.944137\H,0,3.276156,2.239719,0.937882\H,0,1.
 03217,3.059875,0.424149\H,0,-1.071701,3.755361,0.180776\H,0,-0.503554,
 3.565473,-1.48266\H,0,-2.24682,3.432935,-1.105848\\Version=ES64L-G16Re
 vA.03\State=1-A\HF=-837.3816901\RMSD=4.102e-09\PG=C01 [X(C13H12N2O3)]\
 \@


 There are more things in heaven and earth, Horatio,
 than are dreamt of in your philosophy.
                   -- Hamlet, Act I, Scene 5
 Job cpu time:       0 days  0 hours 44 minutes  4.5 seconds.
 Elapsed time:       0 days  0 hours  1 minutes 23.1 seconds.
 File lengths (MBytes):  RWF=   1058 Int=      0 D2E=      0 Chk=     66 Scr=      1
 Normal termination of Gaussian 16 at Thu Dec 28 13:28:40 2023.
