 Entering Gaussian System, Link 0=g16
 Input=molecule_2_1_ECD.com
 Output=molecule_2_1_ECD.log
 Initial command:
 /share/apps/g16/A03/l1.exe "/tmp/954301.tmpdir/scr/Gau-33167.inp" -scrdir="/tmp/954301.tmpdir/scr/"
 Entering Link 1 = /share/apps/g16/A03/l1.exe PID=     33168.
  
 Copyright (c) 1988,1990,1992,1993,1995,1998,2003,2009,2016,
            Gaussian, Inc.  All Rights Reserved.
  
 This is part of the Gaussian(R) 16 program.  It is based on
 the Gaussian(R) 09 system (copyright 2009, Gaussian, Inc.),
 the Gaussian(R) 03 system (copyright 2003, Gaussian, Inc.),
 the Gaussian(R) 98 system (copyright 1998, Gaussian, Inc.),
 the Gaussian(R) 94 system (copyright 1995, Gaussian, Inc.),
 the Gaussian 92(TM) system (copyright 1992, Gaussian, Inc.),
 the Gaussian 90(TM) system (copyright 1990, Gaussian, Inc.),
 the Gaussian 88(TM) system (copyright 1988, Gaussian, Inc.),
 the Gaussian 86(TM) system (copyright 1986, Carnegie Mellon
 University), and the Gaussian 82(TM) system (copyright 1983,
 Carnegie Mellon University). Gaussian is a federally registered
 trademark of Gaussian, Inc.
  
 This software contains proprietary and confidential information,
 including trade secrets, belonging to Gaussian, Inc.
  
 This software is provided under written license and may be
 used, copied, transmitted, or stored only in accord with that
 written license.
  
 The following legend is applicable only to US Government
 contracts under FAR:
  
                    RESTRICTED RIGHTS LEGEND
  
 Use, reproduction and disclosure by the US Government is
 subject to restrictions as set forth in subparagraphs (a)
 and (c) of the Commercial Computer Software - Restricted
 Rights clause in FAR 52.227-19.
  
 Gaussian, Inc.
 340 Quinnipiac St., Bldg. 40, Wallingford CT 06492
  
  
 ---------------------------------------------------------------
 Warning -- This program may not be used in any manner that
 competes with the business of Gaussian, Inc. or will provide
 assistance to any competitor of Gaussian, Inc.  The licensee
 of this program is prohibited from giving any competitor of
 Gaussian, Inc. access to this program.  By using this program,
 the user acknowledges that Gaussian, Inc. is engaged in the
 business of creating and licensing software in the field of
 computational chemistry and represents and warrants to the
 licensee that it is not a competitor of Gaussian, Inc. and that
 it will not use this program in any manner prohibited above.
 ---------------------------------------------------------------
  

 Cite this work as:
 Gaussian 16, Revision A.03,
 M. J. Frisch, G. W. Trucks, H. B. Schlegel, G. E. Scuseria, 
 M. A. Robb, J. R. Cheeseman, G. Scalmani, V. Barone, 
 G. A. Petersson, H. Nakatsuji, X. Li, M. Caricato, A. V. Marenich, 
 J. Bloino, B. G. Janesko, R. Gomperts, B. Mennucci, H. P. Hratchian, 
 J. V. Ortiz, A. F. Izmaylov, J. L. Sonnenberg, D. Williams-Young, 
 F. Ding, F. Lipparini, F. Egidi, J. Goings, B. Peng, A. Petrone, 
 T. Henderson, D. Ranasinghe, V. G. Zakrzewski, J. Gao, N. Rega, 
 G. Zheng, W. Liang, M. Hada, M. Ehara, K. Toyota, R. Fukuda, 
 J. Hasegawa, M. Ishida, T. Nakajima, Y. Honda, O. Kitao, H. Nakai, 
 T. Vreven, K. Throssell, J. A. Montgomery, Jr., J. E. Peralta, 
 F. Ogliaro, M. J. Bearpark, J. J. Heyd, E. N. Brothers, K. N. Kudin, 
 V. N. Staroverov, T. A. Keith, R. Kobayashi, J. Normand, 
 K. Raghavachari, A. P. Rendell, J. C. Burant, S. S. Iyengar, 
 J. Tomasi, M. Cossi, J. M. Millam, M. Klene, C. Adamo, R. Cammi, 
 J. W. Ochterski, R. L. Martin, K. Morokuma, O. Farkas, 
 J. B. Foresman, and D. J. Fox, Gaussian, Inc., Wallingford CT, 2016.
 
 ******************************************
 Gaussian 16:  ES64L-G16RevA.03 25-Dec-2016
                28-Dec-2023 
 ******************************************
 %nprocs=32
 Will use up to   32 processors via shared memory.
 %chk=molecule_2_1_ECD.chk
 %mem=10GB
 --------------------------------------------
 # td=(nstates=20,root=20) cam-b3lyp/6-31g(d)
 --------------------------------------------
 1/38=1,172=1/1;
 2/12=2,17=6,18=5,40=1/2;
 3/5=1,6=6,7=1,11=9,25=1,30=1,74=-40/1,2,3,8;
 4//1;
 5/5=2,38=5/2;
 8/6=1,10=2,107=20,108=20/1;
 9/8=20,41=20,42=1,70=2/14;
 6/7=2,8=2,9=2,10=2/1;
 99/5=1,9=1/99;
 -----
 Title
 -----
 Symbolic Z-matrix:
 Charge =  0 Multiplicity = 1
 O                     1.91932  -1.82224  -0.91826 
 C                     1.45109  -0.77297  -0.48685 
 C                    -0.11271  -0.62675  -0.51356 
 O                    -0.53315  -1.06194  -1.81422 
 C                    -0.63254   0.78636  -0.21784 
 C                    -2.00398   1.09617  -0.31382 
 C                    -2.44081   2.41844  -0.05485 
 C                    -3.8981    2.81806  -0.15095 
 C                    -1.50728   3.39442   0.31416 
 C                    -0.16346   3.08308   0.44234 
 C                     0.28751   1.78222   0.17759 
 C                     1.70395   1.49657   0.32422 
 C                     2.29052   0.30981   0.04003 
 C                     3.79734   0.10008   0.18827 
 C                     4.46304  -0.11811  -1.18326 
 O                     4.30662   1.31557   0.76503 
 C                     4.09875  -1.06914   1.14337 
 C                    -3.02098   0.01265  -0.6194 
 C                    -3.13427  -1.02501   0.52041 
 C                    -2.08722  -2.16335   0.52642 
 C                    -2.27505  -2.96366   1.83514 
 C                    -2.34214  -3.13219  -0.64952 
 C                    -0.61318  -1.66537   0.53082 
 H                    -0.06434  -0.52289  -2.47121 
 H                    -4.30771   2.64981  -1.15446 
 H                    -4.01863   3.88097   0.07909 
 H                    -4.52783   2.25646   0.54992 
 H                    -1.84795   4.40731   0.51408 
 H                     0.55207   3.84311   0.74597 
 H                     2.33311   2.30865   0.67537 
 H                     4.2886    0.75104  -1.82581 
 H                     4.07149  -1.01301  -1.67082 
 H                     5.5473   -0.23941  -1.05539 
 H                     5.26577   1.20153   0.8504 
 H                     5.18472  -1.1825    1.26067 
 H                     3.66654  -0.86878   2.129 
 H                     3.69676  -2.00778   0.75613 
 H                    -2.76074  -0.4894   -1.55381 
 H                    -4.00335   0.46441  -0.77004 
 H                    -3.10041  -0.49413   1.48232 
 H                    -4.12599  -1.49519   0.4678 
 H                    -3.28621  -3.38544   1.88948 
 H                    -2.12725  -2.33044   2.71874 
 H                    -1.56399  -3.79659   1.89493 
 H                    -1.62102  -3.95795  -0.62862 
 H                    -2.24652  -2.64552  -1.62069 
 H                    -3.34771  -3.56475  -0.56904 
 H                    -0.3848   -1.23908   1.51737 
 H                     0.02292  -2.54945   0.4118 
 
                          Input orientation:                          
 ---------------------------------------------------------------------
 Center     Atomic      Atomic             Coordinates (Angstroms)
 Number     Number       Type             X           Y           Z
 ---------------------------------------------------------------------
      1          8           0        1.919317   -1.822238   -0.918257
      2          6           0        1.451094   -0.772971   -0.486848
      3          6           0       -0.112710   -0.626747   -0.513560
      4          8           0       -0.533154   -1.061943   -1.814222
      5          6           0       -0.632540    0.786363   -0.217838
      6          6           0       -2.003982    1.096172   -0.313821
      7          6           0       -2.440805    2.418444   -0.054848
      8          6           0       -3.898098    2.818056   -0.150945
      9          6           0       -1.507275    3.394422    0.314158
     10          6           0       -0.163461    3.083079    0.442344
     11          6           0        0.287509    1.782219    0.177586
     12          6           0        1.703948    1.496571    0.324215
     13          6           0        2.290515    0.309814    0.040027
     14          6           0        3.797341    0.100080    0.188273
     15          6           0        4.463035   -0.118113   -1.183256
     16          8           0        4.306622    1.315568    0.765032
     17          6           0        4.098751   -1.069136    1.143367
     18          6           0       -3.020979    0.012650   -0.619404
     19          6           0       -3.134268   -1.025010    0.520408
     20          6           0       -2.087224   -2.163354    0.526424
     21          6           0       -2.275053   -2.963662    1.835143
     22          6           0       -2.342138   -3.132189   -0.649517
     23          6           0       -0.613181   -1.665368    0.530823
     24          1           0       -0.064341   -0.522887   -2.471213
     25          1           0       -4.307707    2.649809   -1.154455
     26          1           0       -4.018626    3.880972    0.079089
     27          1           0       -4.527828    2.256464    0.549915
     28          1           0       -1.847945    4.407305    0.514084
     29          1           0        0.552070    3.843107    0.745971
     30          1           0        2.333106    2.308645    0.675368
     31          1           0        4.288596    0.751035   -1.825808
     32          1           0        4.071487   -1.013011   -1.670820
     33          1           0        5.547295   -0.239410   -1.055391
     34          1           0        5.265775    1.201531    0.850398
     35          1           0        5.184721   -1.182495    1.260673
     36          1           0        3.666543   -0.868776    2.128997
     37          1           0        3.696756   -2.007777    0.756129
     38          1           0       -2.760735   -0.489397   -1.553814
     39          1           0       -4.003351    0.464412   -0.770041
     40          1           0       -3.100408   -0.494129    1.482321
     41          1           0       -4.125988   -1.495192    0.467796
     42          1           0       -3.286205   -3.385441    1.889484
     43          1           0       -2.127251   -2.330441    2.718738
     44          1           0       -1.563990   -3.796586    1.894933
     45          1           0       -1.621022   -3.957953   -0.628618
     46          1           0       -2.246517   -2.645515   -1.620687
     47          1           0       -3.347711   -3.564751   -0.569039
     48          1           0       -0.384798   -1.239084    1.517372
     49          1           0        0.022922   -2.549446    0.411802
 ---------------------------------------------------------------------
                    Distance matrix (angstroms):
                    1          2          3          4          5
     1  O    0.000000
     2  C    1.227317   0.000000
     3  C    2.392094   1.570853   0.000000
     4  O    2.719451   2.404718   1.434535   0.000000
     5  C    3.715826   2.616375   1.534456   2.444290   0.000000
     6  C    4.926940   3.932071   2.566175   3.011976   1.409272
     7  C    6.143250   5.051597   3.860522   4.341385   2.441327
     8  C    7.480870   6.451524   5.131015   5.398493   3.846573
     9  C    6.361912   5.173077   4.335865   5.033697   2.801812
    10  C    5.500121   4.282442   3.831336   4.733917   2.435319
    11  C    4.105579   2.885203   2.537908   3.567919   1.412296
    12  C    3.550298   2.423341   2.917292   4.015412   2.501478
    13  C    2.366800   1.467872   2.638010   3.645965   2.972851
    14  C    2.906319   2.592852   4.038483   4.910547   4.501084
    15  C    3.073234   3.160002   4.652380   5.123557   5.264503
    16  O    4.287017   3.752764   4.993784   5.977336   5.063735
    17  C    3.093120   3.123364   4.547254   5.495628   5.261261
    18  C    5.278508   4.542489   2.979607   2.961691   2.542544
    19  C    5.314513   4.701450   3.218309   3.495376   3.175645
    20  C    4.272685   3.934410   2.709508   3.017758   3.372071
    21  C    5.145561   4.906622   3.956426   4.468625   4.579876
    22  C    4.466340   4.470009   3.356497   2.985780   4.296990
    23  C    2.921983   2.468453   1.555616   2.422759   2.563563
    24  H    2.834587   2.509340   1.961003   0.970569   2.667337
    25  H    7.670125   6.732378   5.361396   5.334758   4.225699
    26  H    8.293399   7.203979   5.993909   6.337630   4.596776
    27  H    7.768978   6.782320   5.379326   5.705996   4.233664
    28  H    7.419641   6.222603   5.422986   6.087886   3.888977
    29  H    6.060953   4.861714   4.691263   5.638423   3.417003
    30  H    4.446915   3.409553   4.001511   5.076846   3.451118
    31  H    3.613705   3.488098   4.794974   5.151339   5.177296
    32  H    2.419305   2.885458   4.358435   4.607133   5.241829
    33  H    3.960603   4.169747   5.699058   6.182576   6.320132
    34  H    4.844595   4.498742   5.842181   6.771343   6.008628
    35  H    3.977420   4.142645   5.614226   6.493351   6.316876
    36  H    3.639732   3.429291   4.617839   5.764004   5.170032
    37  H    2.448935   2.848286   4.246338   5.039191   5.243914
    38  H    4.907472   4.354117   2.848338   2.314679   2.818086
    39  H    6.350491   5.600204   4.048888   3.932218   3.430881
    40  H    5.720515   4.967046   3.595479   4.216681   3.258922
    41  H    6.210782   5.704103   4.221807   4.278290   4.228447
    42  H    6.117554   5.908803   4.843148   5.166756   5.374634
    43  H    5.464496   5.050351   4.172373   4.969704   4.535648
    44  H    4.893416   4.889362   4.237326   4.722153   5.131746
    45  H    4.144776   4.427427   3.658576   3.313003   4.863576
    46  H    4.304110   4.297015   3.139154   2.341104   4.043599
    47  H    5.558767   5.552416   4.370375   3.966895   5.140787
    48  H    3.403131   2.757655   2.138615   3.339597   2.678575
    49  H    2.427798   2.450125   2.138098   2.734423   3.457412
                    6          7          8          9         10
     6  C    0.000000
     7  C    1.416434   0.000000
     8  C    2.564973   1.514142   0.000000
     9  C    2.433727   1.400063   2.502909   0.000000
    10  C    2.811957   2.423888   3.790744   1.385353   0.000000
    11  C    2.441940   2.811139   4.324372   2.416423   1.402037
    12  C    3.783669   4.262923   5.775380   3.730133   2.453198
    13  C    4.380214   5.180802   6.680320   4.900323   3.724897
    14  C    5.907592   6.659458   8.168368   6.245597   4.964956
    15  C    6.637222   7.441131   8.921620   7.086942   5.856165
    16  O    6.405918   6.885950   8.391300   6.190825   4.817662
    17  C    6.637417   7.507645   8.985271   7.213769   5.991559
    18  C    1.517130   2.538340   2.976423   3.820893   4.326691
    19  C    2.544189   3.559380   3.975337   4.713918   5.070324
    20  C    3.367113   4.632037   5.343458   5.591983   5.588649
    21  C    4.601497   5.706716   6.325115   6.582409   6.554524
    22  C    4.255124   5.583269   6.170494   6.649986   6.675953
    23  C    3.205285   4.512288   5.599694   5.142745   4.770516
    24  H    3.322333   4.487519   5.589565   5.018532   4.636985
    25  H    2.903033   2.178988   1.096868   3.248645   4.462316
    26  H    3.459520   2.155562   1.094181   2.568827   3.953591
    27  H    2.908972   2.178908   1.096882   3.236398   4.443260
    28  H    3.416632   2.151914   2.677892   1.087179   2.143877
    29  H    3.899002   3.410026   4.653943   2.151437   1.087114
    30  H    4.610739   4.830683   6.306362   4.007232   2.624289
    31  H    6.480877   7.155515   8.608118   6.720050   5.513960
    32  H    6.572779   7.536325   8.972256   7.381612   6.259249
    33  H    7.704251   8.477913   9.969031   8.052786   6.774576
    34  H    7.363143   7.854408   9.359082   7.139365   5.760498
    35  H    7.703818   8.534987  10.024703   8.162528   6.889690
    36  H    6.479447   7.271499   8.718639   6.945278   5.755944
    37  H    6.578579   7.610438   9.043962   7.514056   6.396605
    38  H    2.150415   3.287065   3.768406   4.488266   4.846964
    39  H    2.145864   2.602171   2.435980   3.998855   4.803337
    40  H    2.637676   3.358727   3.778153   4.361594   4.743799
    41  H    3.439332   4.292965   4.363357   5.548837   6.054984
    42  H    5.155919   6.179014   6.559050   7.184204   7.327175
    43  H    4.577476   5.508448   6.154511   6.240227   6.192305
    44  H    5.386211   6.572446   7.306652   7.362925   7.169469
    45  H    5.078379   6.454432   7.164324   7.413446   7.269634
    46  H    3.970761   5.304081   5.893935   6.385213   6.435216
    47  H    4.857463   6.073343   6.420121   7.252402   7.440160
    48  H    3.380598   4.480687   5.620226   4.917017   4.459346
    49  H    4.233840   5.564858   6.670919   6.138453   5.635691
                   11         12         13         14         15
    11  C    0.000000
    12  C    1.452375   0.000000
    13  C    2.489765   1.353963   0.000000
    14  C    3.892124   2.520111   1.528558   0.000000
    15  C    4.785203   3.534436   2.529701   1.540081   0.000000
    16  O    4.088536   2.645939   2.366825   1.438551   2.423991
    17  C    4.856802   3.604018   2.527564   1.539519   2.539748
    18  C    3.835709   5.041565   5.360515   6.866547   7.506364
    19  C    4.439214   5.459414   5.607209   7.030174   7.838619
    20  C    4.618289   5.273417   5.051509   6.313920   7.071910
    21  C    5.642482   6.165146   5.897669   6.998047   7.912630
    22  C    5.634763   6.224499   5.812429   6.988752   7.461897
    23  C    3.580765   3.925510   3.545938   4.763072   5.576740
    24  H    3.528944   3.875497   3.541901   4.730068   4.724384
    25  H    4.862413   6.297334   7.102035   8.602083   9.197181
    26  H    4.791374   6.204298   7.249825   8.683110   9.461753
    27  H    4.852938   6.281991   7.109095   8.607509   9.459287
    28  H    3.400657   4.596125   5.843031   7.108276   7.949141
    29  H    2.154139   2.647817   4.000588   4.985285   5.891420
    30  H    2.170110   1.085639   2.097808   2.694254   3.725619
    31  H    4.591909   3.443665   2.769177   2.172923   1.094861
    32  H    5.054543   3.985399   2.801558   2.184114   1.091728
    33  H    5.768238   4.437145   3.479684   2.173544   1.098491
    34  H    5.056976   3.612552   3.209989   1.951385   2.553742
    35  H    5.826259   4.491117   3.477555   2.172525   2.761617
    36  H    4.717377   3.564251   2.765199   2.173062   3.488397
    37  H    5.130472   4.054416   2.803844   2.185324   2.814112
    38  H    4.177293   5.234927   5.356696   6.811073   7.242791
    39  H    4.587602   5.902204   6.347666   7.867776   8.496457
    40  H    4.285099   5.327845   5.638137   7.043194   8.028223
    41  H    5.504961   6.554343   6.679262   8.087161   8.854018
    42  H    6.512045   7.154421   6.940836   8.075865   8.953652
    43  H    5.403933   5.920967   5.801991   6.885599   7.971940
    44  H    6.123757   6.415924   5.929621   6.844017   7.702691
    45  H    6.102625   6.458727   5.827610   6.818622   7.215798
    46  H    5.409242   6.045303   5.663621   6.880323   7.183119
    47  H    6.508637   7.206535   6.868246   8.065747   8.559458
    48  H    3.372728   3.642841   3.426213   4.588044   5.661400
    49  H    4.346054   4.382211   3.668182   4.616946   5.307560
                   16         17         18         19         20
    16  O    0.000000
    17  C    2.423461   0.000000
    18  C    7.570204   7.414053   0.000000
    19  C    7.804165   7.259930   1.545556   0.000000
    20  C    7.282932   6.312228   2.630554   1.546662   0.000000
    21  C    7.923092   6.685294   3.929331   2.495025   1.545483
    22  C    8.123392   6.996833   3.217413   2.537006   1.544817
    23  C    5.757195   4.788842   3.152183   2.601163   1.555896
    24  H    5.740951   5.540299   3.529547   4.315828   3.971022
    25  H    8.925878   9.475182   2.982710   4.205523   5.560795
    26  H    8.738511   9.567030   4.055503   5.004549   6.361155
    27  H    8.887017   9.264430   2.944928   3.565242   5.048949
    28  H    6.892061   8.108674   4.687622   5.582536   6.575026
    29  H    4.526089   6.071820   5.413255   6.110526   6.564423
    30  H    2.211110   3.840043   5.967768   6.405423   6.289696
    31  H    2.651693   3.487845   7.445167   7.984859   7.394440
    32  H    3.378009   2.814879   7.242964   7.531569   6.639344
    33  H    2.696510   2.760663   8.583061   8.858321   8.030540
    34  H    0.969673   2.569767   8.499650   8.696384   8.092837
    35  H    2.693889   1.098154   8.502739   8.353345   7.374442
    36  H    2.653575   1.094721   7.283788   6.990207   6.111465
    37  H    3.378852   1.092062   7.148579   6.905381   5.790630
    38  H    7.653919   7.393472   1.092200   2.174582   2.753750
    39  H    8.493325   8.465043   1.091712   2.153820   3.501074
    40  H    7.658564   7.230035   2.163419   1.099208   2.174073
    41  H    8.893685   8.263429   2.162553   1.098794   2.146261
    42  H    9.000828   7.775573   4.232244   2.732963   2.188375
    43  H    7.648861   6.544905   4.175167   2.747888   2.199036
    44  H    7.866059   6.330124   4.791136   3.469398   2.194091
    45  H    8.055386   6.648383   4.210184   3.494614   2.184503
    46  H    8.020316   7.098408   2.944181   2.828149   2.206341
    47  H    9.175297   8.038049   3.592644   2.771775   2.180087
    48  H    5.394598   4.502330   3.616919   2.932465   2.175892
    49  H    5.780414   4.397600   4.110116   3.507642   2.148237
                   21         22         23         24         25
    21  C    0.000000
    22  C    2.491272   0.000000
    23  C    2.479644   2.556180   0.000000
    24  H    5.421193   3.913489   3.258636   0.000000
    25  H    6.676858   6.127799   5.925406   5.459488   0.000000
    26  H    7.278241   7.247476   6.524033   6.444718   1.766624
    27  H    5.828938   5.937462   5.541263   6.064217   1.762966
    28  H    7.500585   7.644747   6.196957   6.033244   3.453005
    29  H    7.450572   7.679751   5.634483   5.458218   5.352851
    30  H    7.097706   7.294923   4.949170   4.864802   6.896741
    31  H    8.383497   7.773656   5.951481   4.581210   8.829070
    32  H    7.508354   6.831439   5.217175   4.240981   9.159355
    33  H    8.773019   8.412851   6.519271   5.794426  10.270271
    34  H    8.670792   8.883198   6.548539   6.512822   9.887796
    35  H    7.690956   8.006481   5.863575   6.474157  10.517870
    36  H    6.306937   6.996244   4.637322   5.933049   9.313977
    37  H    6.143329   6.301459   4.329384   5.173634   9.455943
    38  H    4.224086   2.824416   3.215681   2.848383   3.522389
    39  H    4.639579   3.963546   4.209687   4.402788   2.239725
    40  H    2.627601   3.475495   2.909200   4.984873   4.277208
    41  H    2.729836   2.666509   3.517491   5.106871   4.454857
    42  H    1.096941   2.720648   3.456829   6.131093   6.836174
    43  H    1.097066   3.469023   2.742572   5.870131   6.675245
    44  H    1.096790   2.742474   2.703132   5.659442   7.640861
    45  H    2.736145   1.096509   2.759709   4.197391   7.152433
    46  H    3.470561   1.090489   2.873581   3.160828   5.701433
    47  H    2.700369   1.097617   3.506424   4.863304   6.315462
    48  H    2.578413   3.480005   1.098706   4.065027   6.136071
    49  H    2.734623   2.656971   1.095622   3.525100   6.945485
                   26         27         28         29         30
    26  H    0.000000
    27  H    1.766349   0.000000
    28  H    2.275545   3.436448   0.000000
    29  H    4.619245   5.325527   2.476320   0.000000
    30  H    6.570560   6.862279   4.680980   2.351946   0.000000
    31  H    9.079376   9.254172   7.516684   5.489680   3.536378
    32  H    9.615778   9.464108   8.318251   6.465992   4.422665
    33  H   10.477187  10.503071   8.873826   6.698069   4.451867
    34  H    9.694041   9.854838   7.809936   5.404428   3.139568
    35  H   10.570546  10.327886   9.014524   6.854418   4.545586
    36  H    9.264127   8.911136   7.800933   5.815027   3.739933
    37  H    9.729484   9.266610   8.482663   6.642439   4.527423
    38  H    4.832058   3.884333   5.393244   5.918976   6.224589
    39  H    3.520531   2.286659   4.673452   5.870752   6.755819
    40  H    4.685477   3.236151   5.150748   5.717904   6.166830
    41  H    5.391267   3.774009   6.327013   7.103453   7.498810
    42  H    7.524276   5.930191   8.042836   8.263890   8.091560
    43  H    7.009044   5.613044   7.094768   7.013078   6.752130
    44  H    8.262410   6.872614   8.324134   8.010164   7.344967
    45  H    8.227885   6.961138   8.445993   8.213913   7.523680
    46  H    6.973137   5.826259   7.379592   7.452206   7.126606
    47  H    7.503931   6.044111   8.183895   8.474308   8.265411
    48  H    6.441144   5.506317   5.918538   5.225079   4.547786
    49  H    7.602308   6.620058   7.204651   6.423115   5.385858
                   31         32         33         34         35
    31  H    0.000000
    32  H    1.784101   0.000000
    33  H    1.777314   1.776294   0.000000
    34  H    2.884424   3.561890   2.405742   0.000000
    35  H    3.750726   3.140329   2.526860   2.420429   0.000000
    36  H    4.318706   3.824054   3.751487   2.911791   1.776871
    37  H    3.824620   2.649540   3.135797   3.573565   1.774738
    38  H    7.162801   6.853256   8.326721   8.547768   8.457659
    39  H    8.363802   8.258159   9.580795   9.438531   9.552841
    40  H    8.190942   7.851599   9.015965   8.559650   8.316630
    41  H    9.006186   8.485563   9.872664   9.778748   9.349638
    42  H    9.396352   8.511159   9.828556   9.759937   8.775247
    43  H    8.444613   7.708968   8.804267   8.403711   7.543783
    44  H    8.293222   7.226443   8.481055   8.527480   7.265044
    45  H    7.650583   6.493345   8.086684   8.731308   7.588855
    46  H    7.367926   6.525700   8.176332   8.794348   8.103454
    47  H    8.861076   7.922739   9.508710   9.946074   9.045739
    48  H    6.080957   5.483991   6.542796   6.191157   5.575719
    49  H    5.839182   4.805083   6.165032   6.461401   5.406783
                   36         37         38         39         40
    36  H    0.000000
    37  H    1.784097   0.000000
    38  H    7.417340   7.024280   0.000000
    39  H    8.307171   8.229979   1.751612   0.000000
    40  H    6.808096   7.001423   3.055080   2.609069   0.000000
    41  H    7.992217   7.844820   2.638645   2.321062   1.755905
    42  H    7.398086   7.207232   4.529844   4.733787   2.925746
    43  H    6.004357   6.154267   4.695258   4.847941   2.418223
    44  H    5.998778   5.672051   4.925805   5.586472   3.665658
    45  H    6.716085   5.830907   3.766406   5.025217   4.317722
    46  H    7.223656   6.432609   2.217597   3.671745   3.871208
    47  H    7.984199   7.335172   3.282092   4.087104   3.701075
    48  H    4.113949   4.222495   3.954654   4.607394   2.816154
    49  H    4.364560   3.729480   3.981984   5.166330   3.889155
                   41         42         43         44         45
    41  H    0.000000
    42  H    2.509875   0.000000
    43  H    3.123993   1.773094   0.000000
    44  H    3.727864   1.770620   1.773555   0.000000
    45  H    3.679969   3.072693   3.756309   2.529348   0.000000
    46  H    3.036020   3.734935   4.352483   3.761701   1.760096
    47  H    2.442093   2.465820   3.717865   3.050666   1.771895
    48  H    3.894060   3.628151   2.381278   2.841454   3.677740
    49  H    4.281126   3.719241   3.161196   2.504661   2.401857
                   46         47         48         49
    46  H    0.000000
    47  H    1.778647   0.000000
    48  H    3.910430   4.305890   0.000000
    49  H    3.048048   3.654321   1.762263   0.000000
 Stoichiometry    C20H26O3
 Framework group  C1[X(C20H26O3)]
 Deg. of freedom   141
 Full point group                 C1      NOp   1
 Largest Abelian subgroup         C1      NOp   1
 Largest concise Abelian subgroup C1      NOp   1
                         Standard orientation:                         
 ---------------------------------------------------------------------
 Center     Atomic      Atomic             Coordinates (Angstroms)
 Number     Number       Type             X           Y           Z
 ---------------------------------------------------------------------
      1          8           0        1.919317   -1.822238   -0.918257
      2          6           0        1.451094   -0.772971   -0.486848
      3          6           0       -0.112710   -0.626747   -0.513560
      4          8           0       -0.533154   -1.061943   -1.814222
      5          6           0       -0.632540    0.786363   -0.217838
      6          6           0       -2.003982    1.096172   -0.313821
      7          6           0       -2.440805    2.418444   -0.054848
      8          6           0       -3.898098    2.818056   -0.150945
      9          6           0       -1.507275    3.394422    0.314158
     10          6           0       -0.163461    3.083079    0.442344
     11          6           0        0.287509    1.782219    0.177586
     12          6           0        1.703948    1.496571    0.324215
     13          6           0        2.290515    0.309814    0.040027
     14          6           0        3.797341    0.100080    0.188273
     15          6           0        4.463035   -0.118113   -1.183256
     16          8           0        4.306622    1.315568    0.765032
     17          6           0        4.098751   -1.069136    1.143367
     18          6           0       -3.020979    0.012650   -0.619404
     19          6           0       -3.134268   -1.025010    0.520408
     20          6           0       -2.087224   -2.163354    0.526424
     21          6           0       -2.275053   -2.963662    1.835143
     22          6           0       -2.342138   -3.132189   -0.649517
     23          6           0       -0.613181   -1.665368    0.530823
     24          1           0       -0.064341   -0.522887   -2.471213
     25          1           0       -4.307707    2.649809   -1.154455
     26          1           0       -4.018626    3.880972    0.079089
     27          1           0       -4.527828    2.256464    0.549915
     28          1           0       -1.847945    4.407305    0.514084
     29          1           0        0.552070    3.843107    0.745971
     30          1           0        2.333106    2.308645    0.675368
     31          1           0        4.288596    0.751035   -1.825808
     32          1           0        4.071487   -1.013011   -1.670820
     33          1           0        5.547295   -0.239410   -1.055391
     34          1           0        5.265775    1.201531    0.850398
     35          1           0        5.184721   -1.182495    1.260673
     36          1           0        3.666543   -0.868776    2.128997
     37          1           0        3.696756   -2.007777    0.756129
     38          1           0       -2.760735   -0.489397   -1.553814
     39          1           0       -4.003351    0.464412   -0.770041
     40          1           0       -3.100408   -0.494129    1.482321
     41          1           0       -4.125988   -1.495192    0.467796
     42          1           0       -3.286205   -3.385441    1.889484
     43          1           0       -2.127251   -2.330441    2.718738
     44          1           0       -1.563990   -3.796586    1.894933
     45          1           0       -1.621022   -3.957953   -0.628618
     46          1           0       -2.246517   -2.645515   -1.620687
     47          1           0       -3.347711   -3.564751   -0.569039
     48          1           0       -0.384798   -1.239084    1.517372
     49          1           0        0.022922   -2.549446    0.411802
 ---------------------------------------------------------------------
 Rotational constants (GHZ):           0.3765974           0.2126204           0.1552049
 Standard basis: 6-31G(d) (6D, 7F)
 There are   397 symmetry adapted cartesian basis functions of A   symmetry.
 There are   397 symmetry adapted basis functions of A   symmetry.
   397 basis functions,   748 primitive gaussians,   397 cartesian basis functions
    85 alpha electrons       85 beta electrons
       nuclear repulsion energy      2070.2007038598 Hartrees.
 NAtoms=   49 NActive=   49 NUniq=   49 SFac= 1.00D+00 NAtFMM=   60 NAOKFM=F Big=F
 Integral buffers will be    131072 words long.
 Raffenetti 1 integral format.
 Two-electron integral symmetry is turned on.
 One-electron integrals computed using PRISM.
 NBasis=   397 RedAO= T EigKep=  2.40D-04  NBF=   397
 NBsUse=   397 1.00D-06 EigRej= -1.00D+00 NBFU=   397
 ExpMin= 1.61D-01 ExpMax= 5.48D+03 ExpMxC= 8.25D+02 IAcc=3 IRadAn=         5 AccDes= 0.00D+00
 Harris functional with IExCor=20419 and IRadAn=       5 diagonalized for initial guess.
 HarFok:  IExCor=20419 AccDes= 0.00D+00 IRadAn=         5 IDoV= 1 UseB2=F ITyADJ=14
 ICtDFT=  3500011 ScaDFX=  1.000000  1.000000  1.000000  1.000000
 FoFCou: FMM=F IPFlag=           0 FMFlag=      100000 FMFlg1=           0
         NFxFlg=           0 DoJE=T BraDBF=F KetDBF=T FulRan=T
         wScrn=  0.000000 ICntrl=       500 IOpCl=  0 I1Cent=   200000004 NGrid=           0
         NMat0=    1 NMatS0=      1 NMatT0=    0 NMatD0=    1 NMtDS0=    0 NMtDT0=    0
 Petite list used in FoFCou.
 Requested convergence on RMS density matrix=1.00D-08 within 128 cycles.
 Requested convergence on MAX density matrix=1.00D-06.
 Requested convergence on             energy=1.00D-06.
 No special actions if energy rises.
 Integral accuracy reduced to 1.0D-05 until final iterations.
 Initial convergence to 1.0D-05 achieved.  Increase integral accuracy.
 SCF Done:  E(RCAM-B3LYP) =  -1002.92106916     A.U. after   15 cycles
            NFock= 15  Conv=0.62D-08     -V/T= 2.0094
 DoSCS=F DFT=T ScalE2(SS,OS)=  1.000000  1.000000
 ExpMin= 1.61D-01 ExpMax= 5.48D+03 ExpMxC= 8.25D+02 IAcc=3 IRadAn=         5 AccDes= 0.00D+00
 HarFok:  IExCor=  205 AccDes= 0.00D+00 IRadAn=         5 IDoV=-2 UseB2=F ITyADJ=14
 ICtDFT= 12500011 ScaDFX=  1.000000  1.000000  1.000000  1.000000
 GSVD:  LWork=        -713 too small for GESVD, short by        2990 words or        2990 for optimal perf.
 Range of M.O.s used for correlation:    24   397
 NBasis=   397 NAE=    85 NBE=    85 NFC=    23 NFV=     0
 NROrb=    374 NOA=    62 NOB=    62 NVA=   312 NVB=   312

 **** Warning!!: The largest alpha MO coefficient is  0.11032793D+02

 Orbital symmetries:
       Occupied  (A) (A) (A) (A) (A) (A) (A) (A) (A) (A) (A) (A)
                 (A) (A) (A) (A) (A) (A) (A) (A) (A) (A) (A) (A)
                 (A) (A) (A) (A) (A) (A) (A) (A) (A) (A) (A) (A)
                 (A) (A) (A) (A) (A) (A) (A) (A) (A) (A) (A) (A)
                 (A) (A) (A) (A) (A) (A) (A) (A) (A) (A) (A) (A)
                 (A) (A) (A) (A) (A) (A) (A) (A) (A) (A) (A) (A)
                 (A) (A) (A) (A) (A) (A) (A) (A) (A) (A) (A) (A)
                 (A)
       Virtual   (A) (A) (A) (A) (A) (A) (A) (A) (A) (A) (A) (A)
                 (A) (A) (A) (A) (A) (A) (A) (A) (A) (A) (A) (A)
                 (A) (A) (A) (A) (A) (A) (A) (A) (A) (A) (A) (A)
                 (A) (A) (A) (A) (A) (A) (A) (A) (A) (A) (A) (A)
                 (A) (A) (A) (A) (A) (A) (A) (A) (A) (A) (A) (A)
                 (A) (A) (A) (A) (A) (A) (A) (A) (A) (A) (A) (A)
                 (A) (A) (A) (A) (A) (A) (A) (A) (A) (A) (A) (A)
                 (A) (A) (A) (A) (A) (A) (A) (A) (A) (A) (A) (A)
                 (A) (A) (A) (A) (A) (A) (A) (A) (A) (A) (A) (A)
                 (A) (A) (A) (A) (A) (A) (A) (A) (A) (A) (A) (A)
                 (A) (A) (A) (A) (A) (A) (A) (A) (A) (A) (A) (A)
                 (A) (A) (A) (A) (A) (A) (A) (A) (A) (A) (A) (A)
                 (A) (A) (A) (A) (A) (A) (A) (A) (A) (A) (A) (A)
                 (A) (A) (A) (A) (A) (A) (A) (A) (A) (A) (A) (A)
                 (A) (A) (A) (A) (A) (A) (A) (A) (A) (A) (A) (A)
                 (A) (A) (A) (A) (A) (A) (A) (A) (A) (A) (A) (A)
                 (A) (A) (A) (A) (A) (A) (A) (A) (A) (A) (A) (A)
                 (A) (A) (A) (A) (A) (A) (A) (A) (A) (A) (A) (A)
                 (A) (A) (A) (A) (A) (A) (A) (A) (A) (A) (A) (A)
                 (A) (A) (A) (A) (A) (A) (A) (A) (A) (A) (A) (A)
                 (A) (A) (A) (A) (A) (A) (A) (A) (A) (A) (A) (A)
                 (A) (A) (A) (A) (A) (A) (A) (A) (A) (A) (A) (A)
                 (A) (A) (A) (A) (A) (A) (A) (A) (A) (A) (A) (A)
                 (A) (A) (A) (A) (A) (A) (A) (A) (A) (A) (A) (A)
                 (A) (A) (A) (A) (A) (A) (A) (A) (A) (A) (A) (A)
                 (A) (A) (A) (A) (A) (A) (A) (A) (A) (A) (A) (A)
    80 initial guesses have been made.
 Convergence on wavefunction:    0.001000000000000
 Iteration     1 Dimension    80 NMult     0 NNew     80
 CISAX will form    80 AO SS matrices at one time.
 New state      1 was old state      3
 New state      2 was old state      1
 New state      3 was old state      2
 New state      4 was old state      6
 New state      6 was old state      4
 New state      7 was old state     16
 New state     10 was old state      7
 New state     12 was old state     10
 New state     14 was old state     17
 New state     16 was old state     20
 New state     17 was old state     22
 New state     18 was old state     19
 New state     19 was old state     14
 New state     20 was old state     29
 Iteration     2 Dimension   120 NMult    80 NNew     40
 New state      5 was old state      6
 New state      6 was old state      5
 New state      7 was old state      8
 New state      8 was old state      7
 New state     11 was old state     12
 New state     12 was old state     11
 New state     13 was old state     19
 New state     14 was old state     13
 New state     15 was old state     14
 New state     17 was old state     15
 New state     18 was old state     17
 New state     19 was old state     18
 Iteration     3 Dimension   160 NMult   120 NNew     40
 Iteration     4 Dimension   200 NMult   160 NNew     40
 Iteration     5 Dimension   230 NMult   200 NNew     30
 Iteration     6 Dimension   236 NMult   230 NNew      6
 Iteration     7 Dimension   238 NMult   236 NNew      2
 Iteration     8 Dimension   240 NMult   238 NNew      2
 ***********************************************************************
 Excited states from <AA,BB:AA,BB> singles matrix:
 ***********************************************************************
 
 Ground to excited state transition densities written to RWF  633
 Ground to excited state transition electric dipole moments (Au):
       state          X           Y           Z        Dip. S.      Osc.
         1        -0.2182     -0.0129      0.0427      0.0496      0.0043
         2         1.4313     -0.8939     -0.0937      2.8563      0.2836
         3         0.0452     -0.3570     -0.0518      0.1322      0.0148
         4         0.4435     -0.3330     -0.0982      0.3173      0.0418
         5        -0.5623      1.0693      0.1045      1.4706      0.2036
         6         0.1788      0.0432      0.0135      0.0340      0.0048
         7         0.1467     -0.0602     -0.0814      0.0318      0.0047
         8         0.1572     -0.0329     -0.1197      0.0401      0.0061
         9         0.6199     -0.3632     -0.0067      0.5162      0.0797
        10         0.4810      0.4996      0.2978      0.5697      0.0916
        11        -1.3813      0.0228     -0.0468      1.9106      0.3115
        12        -0.1305     -0.0818     -0.1100      0.0358      0.0059
        13        -0.9219     -0.7001     -0.2142      1.3860      0.2317
        14         0.3264     -0.4517     -0.1540      0.3343      0.0563
        15        -0.2379      1.0498      0.0953      1.1679      0.2004
        16         0.1416     -0.4915     -0.0758      0.2674      0.0461
        17        -0.1787     -0.0408     -0.0718      0.0388      0.0068
        18         0.1250     -0.0162     -0.1399      0.0355      0.0063
        19        -0.2387      0.0016     -0.0226      0.0575      0.0104
        20        -0.0767     -0.2516     -0.0448      0.0712      0.0134
 Ground to excited state transition velocity dipole moments (Au):
       state          X           Y           Z        Dip. S.      Osc.
         1         0.0270      0.0032     -0.0020      0.0007      0.0038
         2        -0.2104      0.1228      0.0117      0.0595      0.2663
         3        -0.0057      0.0590      0.0083      0.0036      0.0142
         4        -0.0919      0.0673      0.0197      0.0134      0.0452
         5         0.1068     -0.2216     -0.0227      0.0610      0.1959
         6        -0.0336     -0.0136     -0.0039      0.0013      0.0042
         7        -0.0381      0.0120      0.0165      0.0019      0.0057
         8        -0.0356      0.0113      0.0272      0.0021      0.0063
         9        -0.1485      0.0799     -0.0017      0.0284      0.0819
        10        -0.1113     -0.1073     -0.0702      0.0288      0.0797
        11         0.3288     -0.0083      0.0091      0.1082      0.2951
        12         0.0240      0.0219      0.0283      0.0019      0.0050
        13         0.2207      0.1687      0.0463      0.0793      0.2109
        14        -0.0805      0.1096      0.0412      0.0202      0.0532
        15         0.0600     -0.2605     -0.0203      0.0719      0.1861
        16        -0.0391      0.1275      0.0222      0.0183      0.0471
        17         0.0498      0.0047      0.0178      0.0028      0.0071
        18        -0.0369      0.0110      0.0312      0.0024      0.0061
        19         0.0662      0.0014      0.0047      0.0044      0.0108
        20         0.0143      0.0711      0.0146      0.0055      0.0129
 Ground to excited state transition magnetic dipole moments (Au):
       state          X           Y           Z
         1         0.1799     -0.5930     -0.5507
         2        -0.0748     -0.4458      1.8132
         3         0.0370      0.1720      0.0369
         4        -0.1427      0.1604      0.1827
         5        -0.1754     -0.0681     -0.2799
         6         0.0183      0.0485      0.0212
         7        -0.0515     -0.0356      1.1439
         8         0.2277     -0.6051      0.0052
         9        -0.0318      0.0174      1.2498
        10        -0.0892     -0.0085      0.8156
        11         0.4533      0.0497     -1.4001
        12         0.0088      0.0096     -0.6199
        13         0.1521     -0.0063     -1.2789
        14         0.3071      0.1530     -0.1442
        15        -0.3601     -0.0223      0.0804
        16        -0.1509     -0.0685     -0.2387
        17        -0.1513     -0.2142     -0.2519
        18         0.0863      0.1005      0.0971
        19        -0.0477      0.0336      0.0617
        20         0.0795     -0.3424      0.0608
 Ground to excited state transition velocity quadrupole moments (Au):
       state          XX          YY          ZZ          XY          XZ          YZ
         1         0.0583     -0.0600      0.0121     -0.0557      0.0466      0.0361
         2        -0.3024      0.3773     -0.0296     -0.1519      0.1260     -0.0294
         3         0.0671      0.2857     -0.0420     -0.1721     -0.0034      0.0479
         4        -0.0593      0.2155     -0.0487     -0.0480      0.0462     -0.0947
         5         0.1241     -1.2223      0.0940      0.7577      0.0142     -0.1936
         6        -0.5655     -0.0237     -0.0411      0.1417     -0.0306      0.0279
         7         0.3443     -0.2091     -0.0280      0.2180      0.1070     -0.0970
         8        -0.0910      0.1317     -0.0094      0.0384      0.0841     -0.0824
         9        -0.3134      0.1847     -0.0377      0.0345      0.1016      0.0124
        10         0.5815     -0.5026      0.0141     -0.6147     -0.0385     -0.0239
        11        -0.3968     -0.5699      0.0403      1.0915      0.0226      0.1138
        12        -0.0217      0.0962      0.0039      0.1200      0.1254     -0.0726
        13        -0.6616      0.5330     -0.0719      0.4164      0.0435      0.2588
        14        -0.0006      0.8641     -0.0046     -0.1143     -0.2524      0.0358
        15         0.1153     -1.3192      0.0378      0.7181     -0.0554     -0.2212
        16        -0.1324      0.5512     -0.0270     -0.3465      0.0510      0.0924
        17        -0.1676      0.0530     -0.0558      0.1348      0.1091      0.0956
        18         0.1231      0.1863     -0.1102      0.0147     -0.0955     -0.1097
        19        -0.1154     -0.0183     -0.0689     -0.1784     -0.0273      0.1021
        20         0.7384     -0.0155     -0.0290     -0.6205      0.0738     -0.0754
 <0|del|b> * <b|rxdel|0> + <0|del|b> * <b|delr+rdel|0>
 Rotatory Strengths (R) in cgs (10**-40 erg-esu-cm/Gauss)
       state          XX          YY          ZZ    R(velocity)    E-M Angle
         1        -2.2746     18.6987      5.7879      7.4040       79.65
         2      -120.5134    106.7731    -70.6094    -28.1166       92.23
         3        19.4718      2.6369     21.1219     14.4102       17.78
         4        18.5385     47.2463     32.8162     32.8670       32.41
         5        12.6316    -27.1234     23.6601      3.0561       88.15
         6        -2.8278     -1.8112      0.1320     -1.5024      131.56
         7        33.2090     33.5220     -1.4058     21.7751       65.72
         8       -10.2849     -9.4500    -26.3469    -15.3606      119.70
         9       -13.5721      1.2777     24.5549      4.0868       88.91
        10       -25.4084   -128.7463     18.0514    -45.3678      109.46
        11        -4.3728    236.8918    160.5276    131.0156       73.71
        12       -24.0031    -32.3399      7.0641    -16.4263      129.86
        13       -68.1679     17.1764    -24.3635    -25.1184       94.22
        14        47.2395    -40.3261    -45.7717    -12.9528      105.23
        15       -34.1643    -30.0805     16.3529    -15.9639      100.13
        16       -38.5502      6.3885      9.9378     -7.4080      101.95
        17        -4.8155    -12.8755    -17.0587    -11.5833      132.45
        18         7.4422      4.5309     -9.4654      0.8359       83.29
        19        -0.5999      6.1472    -12.8862     -2.4463      120.04
        20       -47.1873     12.4821    -21.1157    -18.6070      147.78
 1/2[<0|r|b>*<b|rxdel|0> + (<0|rxdel|b>*<b|r|0>)*]
 Rotatory Strengths (R) in cgs (10**-40 erg-esu-cm/Gauss)
       state          XX          YY          ZZ     R(length)
         1        27.7610     -5.4109     16.6256     12.9919
         2        75.7412   -281.7992    120.1410    -28.6390
         3        -1.1815     43.4223      1.3534     14.5314
         4        44.7702     37.7751     12.6927     31.7460
         5       -69.7473     51.5091     20.6821      0.8146
         6        -2.3149     -1.4817     -0.2014     -1.3327
         7         5.3376     -1.5170     65.8279     23.2162
         8       -25.3076    -14.0827      0.4419    -12.9828
         9        13.9390      4.4690      5.9598      8.1226
        10        30.3345      2.9999   -171.7664    -46.1440
        11       442.7488     -0.8030    -46.3158    131.8767
        12         0.8112      0.5565    -48.2456    -15.6260
        13        99.1763     -3.1282   -193.7014    -32.5511
        14       -70.8759     48.8865    -15.6981    -12.5625
        15       -60.5823     16.5432     -5.4240    -16.4877
        16        15.1017    -23.8178    -12.7919     -7.1693
        17       -19.1227     -6.1787    -12.7810    -12.6941
        18        -7.6246      1.1544      9.6115      1.0471
        19        -8.0584     -0.0390      0.9863     -2.3704
        20         4.3129    -60.9205      1.9273    -18.2267
  1/2[<0|del|b>*<b|r|0> + (<0|r|b>*<b|del|0>)*] (Au)
       state          X           Y           Z        Dip. S.   Osc.(frdel)
         1        -0.0059     -0.0000     -0.0001      0.0060      0.0040
         2        -0.3011     -0.1098     -0.0011      0.4120      0.2747
         3        -0.0003     -0.0211     -0.0004      0.0217      0.0145
         4        -0.0408     -0.0224     -0.0019      0.0651      0.0434
         5        -0.0601     -0.2369     -0.0024      0.2994      0.1996
         6        -0.0060     -0.0006     -0.0001      0.0066      0.0044
         7        -0.0056     -0.0007     -0.0013      0.0077      0.0051
         8        -0.0056     -0.0004     -0.0033      0.0092      0.0061
         9        -0.0921     -0.0290      0.0000      0.1211      0.0807
        10        -0.0536     -0.0536     -0.0209      0.1281      0.0854
        11        -0.4541     -0.0002     -0.0004      0.4547      0.3031
        12        -0.0031     -0.0018     -0.0031      0.0080      0.0054
        13        -0.2035     -0.1181     -0.0099      0.3315      0.2210
        14        -0.0263     -0.0495     -0.0063      0.0821      0.0547
        15        -0.0143     -0.2735     -0.0019      0.2897      0.1931
        16        -0.0055     -0.0627     -0.0017      0.0699      0.0466
        17        -0.0089     -0.0002     -0.0013      0.0104      0.0069
        18        -0.0046     -0.0002     -0.0044      0.0091      0.0061
        19        -0.0158      0.0000     -0.0001      0.0159      0.0106
        20        -0.0011     -0.0179     -0.0007      0.0196      0.0131

 Excitation energies and oscillator strengths:
 
 Excited State   1:      Singlet-A      3.5201 eV  352.22 nm  f=0.0043  <S**2>=0.000
      83 -> 86         0.51701
      83 -> 88         0.17542
      84 -> 86         0.39050
      84 -> 88         0.10068
      85 -> 86        -0.11469
 
 Excited State   2:      Singlet-A      4.0525 eV  305.94 nm  f=0.2836  <S**2>=0.000
      83 -> 86         0.13601
      85 -> 86         0.67813
 
 Excited State   3:      Singlet-A      4.5578 eV  272.03 nm  f=0.0148  <S**2>=0.000
      83 -> 86        -0.35227
      84 -> 86         0.52300
      84 -> 88        -0.10723
      85 -> 87         0.25315
 
 Excited State   4:      Singlet-A      5.3712 eV  230.83 nm  f=0.0418  <S**2>=0.000
      78 -> 86        -0.11815
      80 -> 86        -0.17139
      81 -> 86         0.61225
      82 -> 86         0.14351
      85 -> 87        -0.11070
 
 Excited State   5:      Singlet-A      5.6501 eV  219.44 nm  f=0.2036  <S**2>=0.000
      81 -> 86         0.14410
      83 -> 86         0.16404
      84 -> 86        -0.23320
      84 -> 88        -0.18799
      85 -> 87         0.55885
 
 Excited State   6:      Singlet-A      5.7820 eV  214.43 nm  f=0.0048  <S**2>=0.000
      81 -> 86        -0.15410
      82 -> 86         0.67047
 
 Excited State   7:      Singlet-A      6.0007 eV  206.62 nm  f=0.0047  <S**2>=0.000
      80 -> 86         0.15774
      83 -> 87        -0.16979
      84 -> 87         0.51132
      85 -> 87         0.14490
      85 -> 88         0.37414
 
 Excited State   8:      Singlet-A      6.1768 eV  200.73 nm  f=0.0061  <S**2>=0.000
      73 -> 86         0.11897
      76 -> 86         0.26992
      78 -> 86         0.23644
      79 -> 86        -0.20761
      80 -> 86         0.11819
      81 -> 86         0.15393
      83 -> 86        -0.18880
      83 -> 88         0.29083
      84 -> 88         0.22893
      85 -> 88        -0.11433
 
 Excited State   9:      Singlet-A      6.3019 eV  196.74 nm  f=0.0797  <S**2>=0.000
      78 -> 86        -0.14623
      79 -> 86         0.11097
      80 -> 86         0.50166
      84 -> 87         0.12197
      85 -> 88        -0.38570
 
 Excited State  10:      Singlet-A      6.5644 eV  188.87 nm  f=0.0916  <S**2>=0.000
      76 -> 86        -0.16885
      78 -> 86        -0.19240
      79 -> 86         0.11486
      80 -> 86        -0.29187
      81 -> 86        -0.10950
      83 -> 87         0.25802
      83 -> 88         0.20144
      84 -> 87         0.29235
      84 -> 88         0.12437
      85 -> 88        -0.20800
 
 Excited State  11:      Singlet-A      6.6538 eV  186.34 nm  f=0.3115  <S**2>=0.000
      76 -> 86        -0.21506
      78 -> 86        -0.13351
      79 -> 86         0.19152
      80 -> 86         0.17534
      83 -> 88         0.19613
      84 -> 87        -0.28038
      84 -> 88         0.33006
      85 -> 88         0.27923
 
 Excited State  12:      Singlet-A      6.6880 eV  185.38 nm  f=0.0059  <S**2>=0.000
      75 -> 86         0.34857
      77 -> 86         0.15559
      78 -> 86         0.23139
      79 -> 86         0.30271
      81 -> 87         0.17696
      83 -> 87         0.31005
      84 -> 88        -0.10068
      85 -> 88         0.10490
 
 Excited State  13:      Singlet-A      6.8240 eV  181.69 nm  f=0.2317  <S**2>=0.000
      75 -> 86        -0.11887
      77 -> 86        -0.18579
      78 -> 86        -0.18078
      79 -> 86        -0.28038
      80 -> 86         0.17346
      81 -> 87         0.10372
      83 -> 87         0.43653
      84 -> 88        -0.16715
      85 -> 88         0.16545
 
 Excited State  14:      Singlet-A      6.8766 eV  180.30 nm  f=0.0563  <S**2>=0.000
      72 -> 86        -0.10787
      74 -> 86         0.21131
      75 -> 86        -0.29012
      76 -> 86        -0.29219
      77 -> 86         0.34104
      78 -> 86         0.15502
      83 -> 88         0.11172
      84 -> 88        -0.19811
      85 -> 87        -0.11504
 
 Excited State  15:      Singlet-A      7.0053 eV  176.99 nm  f=0.2004  <S**2>=0.000
      74 -> 86         0.17326
      77 -> 86         0.19908
      79 -> 86        -0.21500
      81 -> 87         0.12815
      83 -> 87         0.11038
      83 -> 88        -0.35749
      84 -> 88         0.37136
      85 -> 87         0.18596
 
 Excited State  16:      Singlet-A      7.0444 eV  176.01 nm  f=0.0461  <S**2>=0.000
      75 -> 86         0.36505
      76 -> 86        -0.14012
      77 -> 86         0.14067
      78 -> 86        -0.18777
      79 -> 86        -0.31485
      81 -> 87         0.10059
      81 -> 88         0.15220
      83 -> 87        -0.12194
      83 -> 88         0.23786
 
 Excited State  17:      Singlet-A      7.2087 eV  171.99 nm  f=0.0068  <S**2>=0.000
      73 -> 86        -0.12185
      74 -> 86         0.16635
      76 -> 86         0.32692
      77 -> 86         0.32662
      78 -> 86        -0.32186
      79 -> 86         0.11759
      81 -> 87        -0.25721
 
 Excited State  18:      Singlet-A      7.2862 eV  170.16 nm  f=0.0063  <S**2>=0.000
      75 -> 86        -0.18474
      76 -> 86         0.17326
      76 -> 87         0.18671
      77 -> 86         0.14190
      78 -> 86        -0.15951
      79 -> 86         0.13027
      80 -> 87        -0.12777
      81 -> 87         0.47836
      83 -> 87        -0.15615
 
 Excited State  19:      Singlet-A      7.3972 eV  167.61 nm  f=0.0104  <S**2>=0.000
      72 -> 86        -0.13095
      73 -> 86        -0.15800
      74 -> 86         0.49028
      75 -> 86         0.13352
      77 -> 86        -0.28616
      78 -> 86         0.10351
      83 -> 88         0.10691
 
 Excited State  20:      Singlet-A      7.6940 eV  161.14 nm  f=0.0134  <S**2>=0.000
      61 -> 86        -0.12388
      64 -> 86         0.13423
      69 -> 86         0.11337
      70 -> 86        -0.18809
      72 -> 86         0.16002
      73 -> 86         0.24647
      74 -> 86         0.18050
      80 -> 87         0.20512
      81 -> 88         0.33226
      82 -> 87         0.14275
      82 -> 88         0.11102
 This state for optimization and/or second-order correction.
 Total Energy, E(TD-HF/TD-DFT) =  -1002.63832157    
 Copying the excited state density for this state as the 1-particle RhoCI density.
 SavETr:  write IOETrn=   770 NScale= 10 NData=  16 NLR=1 NState=   20 LETran=     370.

 **********************************************************************

            Population analysis using the SCF density.

 **********************************************************************

 Orbital symmetries:
       Occupied  (A) (A) (A) (A) (A) (A) (A) (A) (A) (A) (A) (A)
                 (A) (A) (A) (A) (A) (A) (A) (A) (A) (A) (A) (A)
                 (A) (A) (A) (A) (A) (A) (A) (A) (A) (A) (A) (A)
                 (A) (A) (A) (A) (A) (A) (A) (A) (A) (A) (A) (A)
                 (A) (A) (A) (A) (A) (A) (A) (A) (A) (A) (A) (A)
                 (A) (A) (A) (A) (A) (A) (A) (A) (A) (A) (A) (A)
                 (A) (A) (A) (A) (A) (A) (A) (A) (A) (A) (A) (A)
                 (A)
       Virtual   (A) (A) (A) (A) (A) (A) (A) (A) (A) (A) (A) (A)
                 (A) (A) (A) (A) (A) (A) (A) (A) (A) (A) (A) (A)
                 (A) (A) (A) (A) (A) (A) (A) (A) (A) (A) (A) (A)
                 (A) (A) (A) (A) (A) (A) (A) (A) (A) (A) (A) (A)
                 (A) (A) (A) (A) (A) (A) (A) (A) (A) (A) (A) (A)
                 (A) (A) (A) (A) (A) (A) (A) (A) (A) (A) (A) (A)
                 (A) (A) (A) (A) (A) (A) (A) (A) (A) (A) (A) (A)
                 (A) (A) (A) (A) (A) (A) (A) (A) (A) (A) (A) (A)
                 (A) (A) (A) (A) (A) (A) (A) (A) (A) (A) (A) (A)
                 (A) (A) (A) (A) (A) (A) (A) (A) (A) (A) (A) (A)
                 (A) (A) (A) (A) (A) (A) (A) (A) (A) (A) (A) (A)
                 (A) (A) (A) (A) (A) (A) (A) (A) (A) (A) (A) (A)
                 (A) (A) (A) (A) (A) (A) (A) (A) (A) (A) (A) (A)
                 (A) (A) (A) (A) (A) (A) (A) (A) (A) (A) (A) (A)
                 (A) (A) (A) (A) (A) (A) (A) (A) (A) (A) (A) (A)
                 (A) (A) (A) (A) (A) (A) (A) (A) (A) (A) (A) (A)
                 (A) (A) (A) (A) (A) (A) (A) (A) (A) (A) (A) (A)
                 (A) (A) (A) (A) (A) (A) (A) (A) (A) (A) (A) (A)
                 (A) (A) (A) (A) (A) (A) (A) (A) (A) (A) (A) (A)
                 (A) (A) (A) (A) (A) (A) (A) (A) (A) (A) (A) (A)
                 (A) (A) (A) (A) (A) (A) (A) (A) (A) (A) (A) (A)
                 (A) (A) (A) (A) (A) (A) (A) (A) (A) (A) (A) (A)
                 (A) (A) (A) (A) (A) (A) (A) (A) (A) (A) (A) (A)
                 (A) (A) (A) (A) (A) (A) (A) (A) (A) (A) (A) (A)
                 (A) (A) (A) (A) (A) (A) (A) (A) (A) (A) (A) (A)
                 (A) (A) (A) (A) (A) (A) (A) (A) (A) (A) (A) (A)
 The electronic state is 1-A.
 Alpha  occ. eigenvalues --  -19.22229 -19.21586 -19.20692 -10.34463 -10.32671
 Alpha  occ. eigenvalues --  -10.32217 -10.27914 -10.27512 -10.27295 -10.27207
 Alpha  occ. eigenvalues --  -10.27086 -10.26867 -10.26533 -10.26533 -10.26239
 Alpha  occ. eigenvalues --  -10.25892 -10.25284 -10.24857 -10.24798 -10.24232
 Alpha  occ. eigenvalues --  -10.24216 -10.23915 -10.22780  -1.12363  -1.09971
 Alpha  occ. eigenvalues --   -1.09284  -0.95606  -0.90882  -0.90359  -0.86560
 Alpha  occ. eigenvalues --   -0.85383  -0.82998  -0.82578  -0.78293  -0.76690
 Alpha  occ. eigenvalues --   -0.76438  -0.74995  -0.73313  -0.70585  -0.69246
 Alpha  occ. eigenvalues --   -0.67538  -0.65258  -0.63888  -0.60153  -0.59253
 Alpha  occ. eigenvalues --   -0.57830  -0.55885  -0.55108  -0.53473  -0.53035
 Alpha  occ. eigenvalues --   -0.52055  -0.51386  -0.50803  -0.50181  -0.49659
 Alpha  occ. eigenvalues --   -0.49589  -0.48765  -0.48173  -0.47798  -0.47028
 Alpha  occ. eigenvalues --   -0.46251  -0.45843  -0.45328  -0.44561  -0.44460
 Alpha  occ. eigenvalues --   -0.43781  -0.43273  -0.42846  -0.42333  -0.41981
 Alpha  occ. eigenvalues --   -0.41646  -0.41236  -0.40621  -0.39868  -0.38832
 Alpha  occ. eigenvalues --   -0.38204  -0.37079  -0.36644  -0.35977  -0.34969
 Alpha  occ. eigenvalues --   -0.33822  -0.33197  -0.30357  -0.29074  -0.26919
 Alpha virt. eigenvalues --   -0.02450   0.03757   0.05878   0.11861   0.12710
 Alpha virt. eigenvalues --    0.13463   0.14830   0.15533   0.16034   0.17766
 Alpha virt. eigenvalues --    0.18118   0.18755   0.19237   0.19811   0.19881
 Alpha virt. eigenvalues --    0.20735   0.20936   0.21843   0.21973   0.22273
 Alpha virt. eigenvalues --    0.22396   0.22897   0.24153   0.24367   0.24898
 Alpha virt. eigenvalues --    0.25294   0.25878   0.26110   0.26520   0.26631
 Alpha virt. eigenvalues --    0.26897   0.27656   0.28714   0.29109   0.29391
 Alpha virt. eigenvalues --    0.29852   0.30391   0.30818   0.31604   0.31870
 Alpha virt. eigenvalues --    0.32426   0.33157   0.33648   0.34584   0.35632
 Alpha virt. eigenvalues --    0.37461   0.39396   0.39946   0.41447   0.43372
 Alpha virt. eigenvalues --    0.45353   0.45940   0.52837   0.53882   0.55227
 Alpha virt. eigenvalues --    0.55777   0.56650   0.57030   0.57177   0.58229
 Alpha virt. eigenvalues --    0.59268   0.59912   0.60183   0.60998   0.61704
 Alpha virt. eigenvalues --    0.62367   0.62565   0.63270   0.63708   0.63990
 Alpha virt. eigenvalues --    0.65648   0.66390   0.66947   0.67277   0.68164
 Alpha virt. eigenvalues --    0.68599   0.68911   0.70177   0.70461   0.71052
 Alpha virt. eigenvalues --    0.72726   0.72931   0.73644   0.74680   0.75025
 Alpha virt. eigenvalues --    0.76191   0.76574   0.77961   0.79397   0.79927
 Alpha virt. eigenvalues --    0.80136   0.81990   0.82498   0.82767   0.84118
 Alpha virt. eigenvalues --    0.84641   0.86180   0.87145   0.88049   0.88847
 Alpha virt. eigenvalues --    0.89237   0.89554   0.91211   0.91384   0.91795
 Alpha virt. eigenvalues --    0.92301   0.92722   0.93065   0.93301   0.94547
 Alpha virt. eigenvalues --    0.95735   0.96449   0.96991   0.97443   0.97495
 Alpha virt. eigenvalues --    0.98037   0.98333   0.99285   0.99877   1.00208
 Alpha virt. eigenvalues --    1.00304   1.01054   1.01627   1.02657   1.03435
 Alpha virt. eigenvalues --    1.03700   1.04030   1.04467   1.04635   1.05127
 Alpha virt. eigenvalues --    1.06335   1.07056   1.07700   1.08260   1.09341
 Alpha virt. eigenvalues --    1.09574   1.11605   1.12237   1.13509   1.14940
 Alpha virt. eigenvalues --    1.16342   1.16867   1.19071   1.20516   1.21300
 Alpha virt. eigenvalues --    1.23434   1.24138   1.25468   1.28337   1.29639
 Alpha virt. eigenvalues --    1.31620   1.32515   1.33604   1.34736   1.35244
 Alpha virt. eigenvalues --    1.38682   1.39326   1.40713   1.42945   1.43024
 Alpha virt. eigenvalues --    1.44478   1.46931   1.47670   1.48989   1.50110
 Alpha virt. eigenvalues --    1.50904   1.51857   1.54612   1.55978   1.56540
 Alpha virt. eigenvalues --    1.60651   1.61410   1.62144   1.63433   1.64604
 Alpha virt. eigenvalues --    1.66021   1.68367   1.69025   1.71485   1.73134
 Alpha virt. eigenvalues --    1.75584   1.77307   1.78210   1.80075   1.80860
 Alpha virt. eigenvalues --    1.81237   1.83388   1.84296   1.84726   1.88309
 Alpha virt. eigenvalues --    1.88932   1.89933   1.90779   1.91009   1.91414
 Alpha virt. eigenvalues --    1.92138   1.93694   1.93821   1.94339   1.95171
 Alpha virt. eigenvalues --    1.95715   1.96913   1.97194   1.97620   1.97803
 Alpha virt. eigenvalues --    2.00152   2.01480   2.03275   2.04048   2.04190
 Alpha virt. eigenvalues --    2.05775   2.06840   2.07220   2.09127   2.09915
 Alpha virt. eigenvalues --    2.10526   2.11028   2.12160   2.13824   2.17600
 Alpha virt. eigenvalues --    2.18100   2.19705   2.21060   2.21527   2.22388
 Alpha virt. eigenvalues --    2.23598   2.24858   2.25626   2.28587   2.29878
 Alpha virt. eigenvalues --    2.30948   2.31209   2.31613   2.32179   2.32954
 Alpha virt. eigenvalues --    2.34057   2.34603   2.35070   2.35320   2.35675
 Alpha virt. eigenvalues --    2.38066   2.38261   2.39550   2.40164   2.42218
 Alpha virt. eigenvalues --    2.42985   2.44166   2.44841   2.45147   2.46551
 Alpha virt. eigenvalues --    2.48727   2.49061   2.50398   2.51216   2.53813
 Alpha virt. eigenvalues --    2.56376   2.58235   2.59855   2.61301   2.63600
 Alpha virt. eigenvalues --    2.65244   2.67313   2.68213   2.69561   2.70751
 Alpha virt. eigenvalues --    2.71206   2.74839   2.76922   2.78061   2.80424
 Alpha virt. eigenvalues --    2.81297   2.81724   2.82255   2.85472   2.88688
 Alpha virt. eigenvalues --    2.89352   2.92662   2.93715   2.95800   2.98669
 Alpha virt. eigenvalues --    3.01508   3.07071   3.08235   3.11377   3.14692
 Alpha virt. eigenvalues --    3.18222   3.23681   3.39443   3.51840   3.92990
 Alpha virt. eigenvalues --    4.03543   4.15845   4.17857   4.20609   4.23862
 Alpha virt. eigenvalues --    4.24693   4.28602   4.31200   4.34963   4.37849
 Alpha virt. eigenvalues --    4.38802   4.40084   4.42271   4.47650   4.51175
 Alpha virt. eigenvalues --    4.56899   4.61443   4.71572   4.77995   4.82704
 Alpha virt. eigenvalues --    4.87225   5.10941
          Condensed to atoms (all electrons):
               1          2          3          4          5          6
     1  O    8.118805   0.506218  -0.074356  -0.005935   0.003934  -0.000055
     2  C    0.506218   4.753859   0.277734  -0.020265  -0.027126   0.004984
     3  C   -0.074356   0.277734   5.170850   0.192710   0.252470  -0.061603
     4  O   -0.005935  -0.020265   0.192710   8.307279  -0.043993  -0.003188
     5  C    0.003934  -0.027126   0.252470  -0.043993   5.086716   0.463234
     6  C   -0.000055   0.004984  -0.061603  -0.003188   0.463234   4.885259
     7  C   -0.000000  -0.000096   0.005896   0.000005  -0.013224   0.525962
     8  C   -0.000000   0.000001  -0.000090   0.000001   0.008256  -0.058740
     9  C    0.000000   0.000017  -0.000663   0.000006  -0.060477  -0.000568
    10  C   -0.000001  -0.000522   0.009981  -0.000072  -0.035339  -0.063218
    11  C    0.000113  -0.024347  -0.037777   0.001287   0.495773  -0.028018
    12  C    0.004592  -0.007877  -0.039704   0.000111  -0.031642   0.010532
    13  C   -0.093161   0.288840  -0.084168   0.003514  -0.011263  -0.000634
    14  C    0.003763  -0.048372   0.004878  -0.000034   0.000065   0.000005
    15  C   -0.010258  -0.001665  -0.000136  -0.000000  -0.000007  -0.000000
    16  O    0.000047   0.002026  -0.000029   0.000000   0.000014   0.000000
    17  C   -0.009312  -0.002155  -0.000328   0.000000   0.000022   0.000000
    18  C    0.000004   0.000097  -0.008290  -0.009871  -0.068737   0.373438
    19  C   -0.000004  -0.000068  -0.001809  -0.001601  -0.001279  -0.033191
    20  C    0.000052   0.002996  -0.019702  -0.000110  -0.006412  -0.004816
    21  C    0.000001  -0.000117   0.004237  -0.000007  -0.000126  -0.000011
    22  C    0.000034  -0.000120  -0.004816  -0.005766   0.000215  -0.000199
    23  C   -0.011820  -0.036340   0.339547  -0.047164  -0.048518  -0.006888
    24  H    0.002308  -0.001747  -0.030489   0.234999  -0.000126  -0.000563
    25  H    0.000000  -0.000000   0.000002  -0.000001  -0.000142  -0.002151
    26  H    0.000000  -0.000000   0.000001  -0.000000  -0.000119   0.002706
    27  H   -0.000000  -0.000000  -0.000001   0.000000  -0.000153  -0.003529
    28  H    0.000000  -0.000000   0.000012  -0.000000   0.001096   0.004290
    29  H   -0.000000   0.000021  -0.000157   0.000001   0.003705   0.001019
    30  H   -0.000069   0.004553  -0.000282   0.000001   0.004014  -0.000071
    31  H   -0.000063   0.000188  -0.000001   0.000000  -0.000001  -0.000000
    32  H    0.014987   0.001789   0.000281  -0.000012  -0.000016   0.000000
    33  H    0.000236   0.000059   0.000003  -0.000000   0.000000   0.000000
    34  H    0.000008  -0.000098   0.000003  -0.000000  -0.000001  -0.000000
    35  H    0.000170   0.000070   0.000004   0.000000   0.000000   0.000000
    36  H   -0.000033   0.000051   0.000004   0.000000  -0.000008  -0.000000
    37  H    0.013139   0.002956   0.000273   0.000000  -0.000011   0.000000
    38  H    0.000001   0.000163   0.000322   0.014708  -0.009119  -0.020887
    39  H    0.000000   0.000002  -0.000093   0.000352   0.005206  -0.031682
    40  H    0.000000  -0.000012  -0.000301   0.000011   0.000556  -0.003086
    41  H    0.000000   0.000002  -0.000053  -0.000015   0.000016   0.004484
    42  H    0.000000   0.000001  -0.000125   0.000001  -0.000001   0.000004
    43  H    0.000000   0.000001  -0.000009   0.000001  -0.000009  -0.000026
    44  H   -0.000005  -0.000008   0.000050  -0.000003   0.000007  -0.000001
    45  H    0.000003  -0.000049   0.000040  -0.000022   0.000027  -0.000009
    46  H   -0.000009  -0.000065   0.000860   0.008118   0.000155   0.000150
    47  H   -0.000000   0.000005   0.000060   0.000266  -0.000011   0.000031
    48  H    0.000144  -0.001733  -0.039633   0.003343  -0.000944  -0.000140
    49  H    0.014057  -0.005596  -0.041791  -0.000016   0.005908   0.000032
               7          8          9         10         11         12
     1  O   -0.000000  -0.000000   0.000000  -0.000001   0.000113   0.004592
     2  C   -0.000096   0.000001   0.000017  -0.000522  -0.024347  -0.007877
     3  C    0.005896  -0.000090  -0.000663   0.009981  -0.037777  -0.039704
     4  O    0.000005   0.000001   0.000006  -0.000072   0.001287   0.000111
     5  C   -0.013224   0.008256  -0.060477  -0.035339   0.495773  -0.031642
     6  C    0.525962  -0.058740  -0.000568  -0.063218  -0.028018   0.010532
     7  C    4.746568   0.346211   0.526720  -0.024748  -0.038793   0.000156
     8  C    0.346211   5.212990  -0.064279   0.007957   0.000050  -0.000003
     9  C    0.526720  -0.064279   4.993125   0.474484  -0.008648   0.007762
    10  C   -0.024748   0.007957   0.474484   5.082659   0.496193  -0.065608
    11  C   -0.038793   0.000050  -0.008648   0.496193   4.771084   0.321422
    12  C    0.000156  -0.000003   0.007762  -0.065608   0.321422   5.236074
    13  C    0.000006  -0.000000  -0.000302   0.009006  -0.023216   0.510162
    14  C    0.000000   0.000000   0.000001  -0.000197   0.005306  -0.045213
    15  C   -0.000000   0.000000  -0.000000   0.000002   0.000014  -0.001007
    16  O    0.000000   0.000000  -0.000000  -0.000063   0.001021  -0.003580
    17  C   -0.000000   0.000000  -0.000000   0.000001  -0.000070   0.001798
    18  C   -0.068428  -0.017630   0.008075  -0.000119   0.007677  -0.000136
    19  C   -0.001590   0.000338  -0.000179   0.000045  -0.000200  -0.000001
    20  C   -0.000098   0.000015   0.000005  -0.000003  -0.000086   0.000030
    21  C    0.000004   0.000000  -0.000000  -0.000000   0.000004  -0.000000
    22  C   -0.000015   0.000000   0.000000   0.000000  -0.000003  -0.000000
    23  C   -0.000191  -0.000002   0.000039  -0.000192   0.002073  -0.000354
    24  H   -0.000018   0.000000  -0.000014  -0.000017   0.001203  -0.000264
    25  H   -0.024557   0.366547   0.000465  -0.000203   0.000032   0.000000
    26  H   -0.032708   0.369564  -0.002015   0.000343   0.000001  -0.000000
    27  H   -0.023899   0.366907   0.000446  -0.000194   0.000038   0.000000
    28  H   -0.033816  -0.009983   0.354128  -0.037453   0.002186  -0.000200
    29  H    0.002910  -0.000189  -0.037412   0.356263  -0.039131  -0.005989
    30  H   -0.000012  -0.000000   0.000384  -0.007171  -0.047935   0.353612
    31  H    0.000000   0.000000  -0.000000  -0.000002  -0.000018   0.001634
    32  H    0.000000   0.000000  -0.000000   0.000000   0.000015  -0.000247
    33  H    0.000000   0.000000   0.000000  -0.000000   0.000001  -0.000054
    34  H    0.000000   0.000000   0.000000   0.000001  -0.000015   0.000037
    35  H    0.000000   0.000000   0.000000  -0.000000   0.000001  -0.000074
    36  H    0.000000   0.000000  -0.000000  -0.000001   0.000005   0.000987
    37  H    0.000000   0.000000  -0.000000   0.000000   0.000011  -0.000342
    38  H    0.003417   0.000133  -0.000164   0.000004  -0.000243   0.000008
    39  H   -0.016075   0.008137   0.000196  -0.000006  -0.000077   0.000002
    40  H    0.001400   0.000033  -0.000069  -0.000035  -0.000119   0.000001
    41  H    0.000120  -0.000061   0.000004  -0.000000   0.000003  -0.000000
    42  H    0.000000  -0.000000  -0.000000   0.000000  -0.000000  -0.000000
    43  H   -0.000001  -0.000000   0.000000   0.000000  -0.000001  -0.000000
    44  H   -0.000000  -0.000000   0.000000  -0.000000   0.000000   0.000000
    45  H    0.000000  -0.000000   0.000000  -0.000000   0.000000  -0.000000
    46  H   -0.000001   0.000000  -0.000000   0.000000  -0.000002   0.000000
    47  H    0.000001  -0.000000   0.000000   0.000000  -0.000000   0.000000
    48  H   -0.000058   0.000000  -0.000002  -0.000067   0.000118   0.000526
    49  H    0.000001  -0.000000  -0.000000   0.000005  -0.000009  -0.000209
              13         14         15         16         17         18
     1  O   -0.093161   0.003763  -0.010258   0.000047  -0.009312   0.000004
     2  C    0.288840  -0.048372  -0.001665   0.002026  -0.002155   0.000097
     3  C   -0.084168   0.004878  -0.000136  -0.000029  -0.000328  -0.008290
     4  O    0.003514  -0.000034  -0.000000   0.000000   0.000000  -0.009871
     5  C   -0.011263   0.000065  -0.000007   0.000014   0.000022  -0.068737
     6  C   -0.000634   0.000005  -0.000000   0.000000   0.000000   0.373438
     7  C    0.000006   0.000000  -0.000000   0.000000  -0.000000  -0.068428
     8  C   -0.000000   0.000000   0.000000   0.000000   0.000000  -0.017630
     9  C   -0.000302   0.000001  -0.000000  -0.000000  -0.000000   0.008075
    10  C    0.009006  -0.000197   0.000002  -0.000063   0.000001  -0.000119
    11  C   -0.023216   0.005306   0.000014   0.001021  -0.000070   0.007677
    12  C    0.510162  -0.045213  -0.001007  -0.003580   0.001798  -0.000136
    13  C    5.225742   0.341582  -0.063892  -0.052463  -0.063787   0.000006
    14  C    0.341582   4.653464   0.374204   0.245047   0.372390  -0.000000
    15  C   -0.063892   0.374204   5.226768  -0.054629  -0.069663   0.000000
    16  O   -0.052463   0.245047  -0.054629   8.314894  -0.054770  -0.000000
    17  C   -0.063787   0.372390  -0.069663  -0.054770   5.223574  -0.000000
    18  C    0.000006  -0.000000   0.000000  -0.000000  -0.000000   5.186751
    19  C    0.000000  -0.000000  -0.000000   0.000000   0.000000   0.343225
    20  C   -0.000194   0.000001   0.000000  -0.000000  -0.000000  -0.029926
    21  C    0.000003  -0.000000   0.000000   0.000000   0.000000   0.004628
    22  C    0.000002  -0.000000  -0.000000  -0.000000   0.000000  -0.004014
    23  C    0.001353  -0.000096   0.000000   0.000000   0.000009  -0.002982
    24  H    0.001389  -0.000030   0.000014   0.000000   0.000000   0.000437
    25  H   -0.000000  -0.000000   0.000000   0.000000  -0.000000  -0.001067
    26  H    0.000000  -0.000000  -0.000000  -0.000000  -0.000000   0.000581
    27  H   -0.000000  -0.000000  -0.000000   0.000000   0.000000  -0.000164
    28  H    0.000003  -0.000000   0.000000   0.000000   0.000000  -0.000164
    29  H    0.000328  -0.000016  -0.000000  -0.000014  -0.000000   0.000012
    30  H   -0.030627  -0.012571   0.000663   0.019202   0.000826   0.000002
    31  H   -0.004590  -0.027351   0.365290   0.001515   0.005984   0.000000
    32  H   -0.007235  -0.018709   0.348301   0.003477  -0.000676  -0.000000
    33  H    0.005834  -0.029502   0.358925  -0.001923  -0.007176  -0.000000
    34  H    0.009058  -0.026621  -0.004568   0.237350  -0.004426   0.000000
    35  H    0.005738  -0.028666  -0.007217  -0.001767   0.360417  -0.000000
    36  H   -0.004133  -0.026907   0.005896   0.001395   0.366446  -0.000000
    37  H   -0.008123  -0.018353  -0.000949   0.003549   0.349082  -0.000000
    38  H   -0.000011   0.000000   0.000000  -0.000000  -0.000000   0.358486
    39  H   -0.000000   0.000000   0.000000   0.000000  -0.000000   0.362603
    40  H    0.000001  -0.000000   0.000000  -0.000000   0.000000  -0.046086
    41  H   -0.000000   0.000000  -0.000000  -0.000000  -0.000000  -0.034165
    42  H   -0.000000   0.000000  -0.000000  -0.000000  -0.000000   0.000020
    43  H   -0.000000  -0.000000  -0.000000   0.000000  -0.000000   0.000009
    44  H   -0.000001  -0.000000  -0.000000   0.000000  -0.000000  -0.000146
    45  H    0.000000  -0.000000   0.000000  -0.000000   0.000000   0.000071
    46  H   -0.000002   0.000000  -0.000000  -0.000000  -0.000000   0.000387
    47  H   -0.000000   0.000000  -0.000000  -0.000000  -0.000000  -0.000162
    48  H    0.001689  -0.000066   0.000001  -0.000000   0.000024   0.000005
    49  H    0.001361  -0.000041   0.000001   0.000000   0.000049  -0.000153
              19         20         21         22         23         24
     1  O   -0.000004   0.000052   0.000001   0.000034  -0.011820   0.002308
     2  C   -0.000068   0.002996  -0.000117  -0.000120  -0.036340  -0.001747
     3  C   -0.001809  -0.019702   0.004237  -0.004816   0.339547  -0.030489
     4  O   -0.001601  -0.000110  -0.000007  -0.005766  -0.047164   0.234999
     5  C   -0.001279  -0.006412  -0.000126   0.000215  -0.048518  -0.000126
     6  C   -0.033191  -0.004816  -0.000011  -0.000199  -0.006888  -0.000563
     7  C   -0.001590  -0.000098   0.000004  -0.000015  -0.000191  -0.000018
     8  C    0.000338   0.000015   0.000000   0.000000  -0.000002   0.000000
     9  C   -0.000179   0.000005  -0.000000   0.000000   0.000039  -0.000014
    10  C    0.000045  -0.000003  -0.000000   0.000000  -0.000192  -0.000017
    11  C   -0.000200  -0.000086   0.000004  -0.000003   0.002073   0.001203
    12  C   -0.000001   0.000030  -0.000000  -0.000000  -0.000354  -0.000264
    13  C    0.000000  -0.000194   0.000003   0.000002   0.001353   0.001389
    14  C   -0.000000   0.000001  -0.000000  -0.000000  -0.000096  -0.000030
    15  C   -0.000000   0.000000   0.000000  -0.000000   0.000000   0.000014
    16  O    0.000000  -0.000000   0.000000  -0.000000   0.000000   0.000000
    17  C    0.000000  -0.000000   0.000000   0.000000   0.000009   0.000000
    18  C    0.343225  -0.029926   0.004628  -0.004014  -0.002982   0.000437
    19  C    5.080483   0.386732  -0.057477  -0.061102  -0.054023  -0.000005
    20  C    0.386732   4.760827   0.379985   0.390297   0.366236  -0.000112
    21  C   -0.057477   0.379985   5.163170  -0.065817  -0.057455   0.000006
    22  C   -0.061102   0.390297  -0.065817   5.153886  -0.055770   0.000279
    23  C   -0.054023   0.366236  -0.057455  -0.055770   5.192722   0.007944
    24  H   -0.000005  -0.000112   0.000006   0.000279   0.007944   0.387833
    25  H   -0.000066  -0.000002  -0.000000   0.000000   0.000000   0.000000
    26  H   -0.000014   0.000000  -0.000000   0.000000  -0.000000  -0.000000
    27  H    0.000768  -0.000004   0.000000   0.000000  -0.000000  -0.000000
    28  H    0.000001   0.000000   0.000000  -0.000000   0.000000  -0.000000
    29  H   -0.000000   0.000000   0.000000  -0.000000   0.000002   0.000000
    30  H   -0.000000  -0.000000   0.000000  -0.000000   0.000002   0.000001
    31  H    0.000000  -0.000000   0.000000   0.000000   0.000000   0.000001
    32  H   -0.000000   0.000000  -0.000000  -0.000000   0.000002  -0.000002
    33  H    0.000000  -0.000000  -0.000000   0.000000   0.000000  -0.000000
    34  H   -0.000000   0.000000  -0.000000  -0.000000  -0.000000  -0.000000
    35  H   -0.000000   0.000000  -0.000000   0.000000  -0.000000  -0.000000
    36  H   -0.000000   0.000000  -0.000000  -0.000000   0.000007   0.000000
    37  H    0.000000   0.000001  -0.000000  -0.000000  -0.000011  -0.000002
    38  H   -0.035564  -0.005692   0.000120   0.001707  -0.002054  -0.000376
    39  H   -0.031633   0.004002  -0.000158   0.000029  -0.000022  -0.000025
    40  H    0.371725  -0.036938  -0.006638   0.005800  -0.003265   0.000000
    41  H    0.365194  -0.033976  -0.005003  -0.007996   0.005775  -0.000000
    42  H   -0.004809  -0.029047   0.369355  -0.004803   0.005157  -0.000000
    43  H   -0.006097  -0.027822   0.368201   0.005681  -0.006266  -0.000000
    44  H    0.005425  -0.028405   0.369215  -0.004499  -0.004628  -0.000000
    45  H    0.005255  -0.028483  -0.004972   0.372484  -0.006387  -0.000011
    46  H   -0.003991  -0.024410   0.004974   0.372183  -0.004508  -0.000018
    47  H   -0.005691  -0.032378  -0.006725   0.362808   0.005501  -0.000011
    48  H   -0.003509  -0.033142  -0.007446   0.005793   0.358883  -0.000219
[...]
    30  H   -0.000000   0.000000  -0.000000  -0.000011   0.005964   0.525155
    31  H   -0.000000  -0.000000   0.000000   0.000000  -0.000000   0.000179
    32  H    0.000000  -0.000000  -0.000000  -0.000000   0.000000  -0.000037
    33  H   -0.000000  -0.000000   0.000000  -0.000000  -0.000000  -0.000026
    34  H    0.000000   0.000000  -0.000000  -0.000000   0.000000  -0.000748
    35  H    0.000000  -0.000000  -0.000000  -0.000000  -0.000000  -0.000021
    36  H    0.000000  -0.000000  -0.000000   0.000000   0.000000   0.000050
    37  H   -0.000000  -0.000000   0.000000  -0.000000   0.000000  -0.000036
    38  H    0.000247  -0.000009  -0.000016   0.000002  -0.000000   0.000000
    39  H    0.001508   0.000126  -0.000184  -0.000011  -0.000000  -0.000000
    40  H    0.000021  -0.000001   0.000304   0.000002  -0.000000  -0.000000
    41  H    0.000015  -0.000001  -0.000035  -0.000000   0.000000   0.000000
    42  H    0.000000  -0.000000   0.000000  -0.000000  -0.000000  -0.000000
    43  H    0.000000  -0.000000   0.000000   0.000000  -0.000000  -0.000000
    44  H    0.000000   0.000000  -0.000000  -0.000000  -0.000000  -0.000000
    45  H    0.000000   0.000000  -0.000000   0.000000  -0.000000  -0.000000
    46  H   -0.000000   0.000000  -0.000000   0.000000  -0.000000  -0.000000
    47  H    0.000000  -0.000000  -0.000000  -0.000000  -0.000000   0.000000
    48  H   -0.000000  -0.000000   0.000000  -0.000000   0.000000   0.000008
    49  H   -0.000000   0.000000   0.000000   0.000000  -0.000000   0.000001
              31         32         33         34         35         36
     1  O   -0.000063   0.014987   0.000236   0.000008   0.000170  -0.000033
     2  C    0.000188   0.001789   0.000059  -0.000098   0.000070   0.000051
     3  C   -0.000001   0.000281   0.000003   0.000003   0.000004   0.000004
     4  O    0.000000  -0.000012  -0.000000  -0.000000   0.000000   0.000000
     5  C   -0.000001  -0.000016   0.000000  -0.000001   0.000000  -0.000008
     6  C   -0.000000   0.000000   0.000000  -0.000000   0.000000  -0.000000
     7  C    0.000000   0.000000   0.000000   0.000000   0.000000   0.000000
     8  C    0.000000   0.000000   0.000000   0.000000   0.000000   0.000000
     9  C   -0.000000  -0.000000   0.000000   0.000000   0.000000  -0.000000
    10  C   -0.000002   0.000000  -0.000000   0.000001  -0.000000  -0.000001
    11  C   -0.000018   0.000015   0.000001  -0.000015   0.000001   0.000005
    12  C    0.001634  -0.000247  -0.000054   0.000037  -0.000074   0.000987
    13  C   -0.004590  -0.007235   0.005834   0.009058   0.005738  -0.004133
    14  C   -0.027351  -0.018709  -0.029502  -0.026621  -0.028666  -0.026907
    15  C    0.365290   0.348301   0.358925  -0.004568  -0.007217   0.005896
    16  O    0.001515   0.003477  -0.001923   0.237350  -0.001767   0.001395
    17  C    0.005984  -0.000676  -0.007176  -0.004426   0.360417   0.366446
    18  C    0.000000  -0.000000  -0.000000   0.000000  -0.000000  -0.000000
    19  C    0.000000  -0.000000   0.000000  -0.000000  -0.000000  -0.000000
    20  C   -0.000000   0.000000  -0.000000   0.000000   0.000000   0.000000
    21  C    0.000000  -0.000000  -0.000000  -0.000000  -0.000000  -0.000000
    22  C    0.000000  -0.000000   0.000000  -0.000000   0.000000  -0.000000
    23  C    0.000000   0.000002   0.000000  -0.000000  -0.000000   0.000007
    24  H    0.000001  -0.000002  -0.000000  -0.000000  -0.000000   0.000000
    25  H   -0.000000   0.000000  -0.000000   0.000000   0.000000   0.000000
    26  H   -0.000000  -0.000000  -0.000000   0.000000  -0.000000  -0.000000
    27  H    0.000000  -0.000000   0.000000  -0.000000  -0.000000  -0.000000
    28  H    0.000000  -0.000000  -0.000000  -0.000000  -0.000000   0.000000
    29  H   -0.000000   0.000000  -0.000000   0.000000  -0.000000   0.000000
    30  H    0.000179  -0.000037  -0.000026  -0.000748  -0.000021   0.000050
    31  H    0.560157  -0.022981  -0.029809  -0.000451  -0.000073  -0.000182
    32  H   -0.022981   0.518749  -0.022845  -0.000024   0.000332  -0.000094
    33  H   -0.029809  -0.022845   0.589916   0.005068   0.004163  -0.000070
    34  H   -0.000451  -0.000024   0.005068   0.386675   0.004881  -0.000442
    35  H   -0.000073   0.000332   0.004163   0.004881   0.587547  -0.029509
    36  H   -0.000182  -0.000094  -0.000070  -0.000442  -0.029509   0.555862
    37  H   -0.000093   0.000120   0.000380  -0.000056  -0.023619  -0.023364
    38  H   -0.000000   0.000000   0.000000   0.000000   0.000000   0.000000
    39  H   -0.000000   0.000000   0.000000  -0.000000   0.000000  -0.000000
    40  H   -0.000000  -0.000000  -0.000000  -0.000000   0.000000   0.000000
    41  H   -0.000000  -0.000000  -0.000000   0.000000   0.000000  -0.000000
    42  H   -0.000000   0.000000  -0.000000   0.000000   0.000000  -0.000000
    43  H    0.000000  -0.000000   0.000000  -0.000000  -0.000000  -0.000000
    44  H   -0.000000   0.000000   0.000000   0.000000   0.000000   0.000000
    45  H   -0.000000  -0.000000   0.000000  -0.000000  -0.000000   0.000000
    46  H   -0.000000   0.000000   0.000000   0.000000   0.000000  -0.000000
    47  H   -0.000000   0.000000  -0.000000   0.000000   0.000000  -0.000000
    48  H   -0.000000  -0.000000  -0.000000  -0.000000   0.000000   0.000039
    49  H    0.000000  -0.000008  -0.000000  -0.000000  -0.000001  -0.000008
              37         38         39         40         41         42
     1  O    0.013139   0.000001   0.000000   0.000000   0.000000   0.000000
     2  C    0.002956   0.000163   0.000002  -0.000012   0.000002   0.000001
     3  C    0.000273   0.000322  -0.000093  -0.000301  -0.000053  -0.000125
     4  O    0.000000   0.014708   0.000352   0.000011  -0.000015   0.000001
     5  C   -0.000011  -0.009119   0.005206   0.000556   0.000016  -0.000001
     6  C    0.000000  -0.020887  -0.031682  -0.003086   0.004484   0.000004
     7  C    0.000000   0.003417  -0.016075   0.001400   0.000120   0.000000
     8  C    0.000000   0.000133   0.008137   0.000033  -0.000061  -0.000000
     9  C   -0.000000  -0.000164   0.000196  -0.000069   0.000004  -0.000000
    10  C    0.000000   0.000004  -0.000006  -0.000035  -0.000000   0.000000
    11  C    0.000011  -0.000243  -0.000077  -0.000119   0.000003  -0.000000
    12  C   -0.000342   0.000008   0.000002   0.000001  -0.000000  -0.000000
    13  C   -0.008123  -0.000011  -0.000000   0.000001  -0.000000  -0.000000
    14  C   -0.018353   0.000000   0.000000  -0.000000   0.000000   0.000000
    15  C   -0.000949   0.000000   0.000000   0.000000  -0.000000  -0.000000
    16  O    0.003549  -0.000000   0.000000  -0.000000  -0.000000  -0.000000
    17  C    0.349082  -0.000000  -0.000000   0.000000  -0.000000  -0.000000
    18  C   -0.000000   0.358486   0.362603  -0.046086  -0.034165   0.000020
    19  C    0.000000  -0.035564  -0.031633   0.371725   0.365194  -0.004809
    20  C    0.000001  -0.005692   0.004002  -0.036938  -0.033976  -0.029047
    21  C   -0.000000   0.000120  -0.000158  -0.006638  -0.005003   0.369355
    22  C   -0.000000   0.001707   0.000029   0.005800  -0.007996  -0.004803
    23  C   -0.000011  -0.002054  -0.000022  -0.003265   0.005775   0.005157
    24  H   -0.000002  -0.000376  -0.000025   0.000000  -0.000000  -0.000000
    25  H   -0.000000   0.000247   0.001508   0.000021   0.000015   0.000000
    26  H   -0.000000  -0.000009   0.000126  -0.000001  -0.000001  -0.000000
    27  H    0.000000  -0.000016  -0.000184   0.000304  -0.000035   0.000000
    28  H   -0.000000   0.000002  -0.000011   0.000002  -0.000000  -0.000000
    29  H    0.000000  -0.000000  -0.000000  -0.000000   0.000000  -0.000000
    30  H   -0.000036   0.000000  -0.000000  -0.000000   0.000000  -0.000000
    31  H   -0.000093  -0.000000  -0.000000  -0.000000  -0.000000  -0.000000
    32  H    0.000120   0.000000   0.000000  -0.000000  -0.000000   0.000000
    33  H    0.000380   0.000000   0.000000  -0.000000  -0.000000  -0.000000
    34  H   -0.000056   0.000000  -0.000000  -0.000000   0.000000   0.000000
    35  H   -0.023619   0.000000   0.000000   0.000000   0.000000   0.000000
    36  H   -0.023364   0.000000  -0.000000   0.000000  -0.000000  -0.000000
    37  H    0.523933   0.000000  -0.000000  -0.000000   0.000000   0.000000
    38  H    0.000000   0.536248  -0.030910   0.004992   0.000022   0.000003
    39  H   -0.000000  -0.030910   0.599100  -0.000559  -0.006646  -0.000001
    40  H   -0.000000   0.004992  -0.000559   0.609036  -0.034375  -0.000061
    41  H    0.000000   0.000022  -0.006646  -0.034375   0.607394   0.004189
    42  H    0.000000   0.000003  -0.000001  -0.000061   0.004189   0.573762
    43  H   -0.000000   0.000002  -0.000001   0.005286  -0.000208  -0.029101
    44  H    0.000000   0.000000   0.000002   0.000054  -0.000097  -0.029042
    45  H   -0.000000  -0.000156   0.000003  -0.000165   0.000026  -0.000111
    46  H   -0.000000   0.003295  -0.000086  -0.000089  -0.000053  -0.000002
    47  H    0.000000   0.000148  -0.000030  -0.000014   0.005107   0.004391
    48  H   -0.000005   0.000026  -0.000003   0.002467  -0.000110   0.000129
    49  H    0.000044  -0.000022   0.000003  -0.000059  -0.000137  -0.000074
              43         44         45         46         47         48
     1  O    0.000000  -0.000005   0.000003  -0.000009  -0.000000   0.000144
     2  C    0.000001  -0.000008  -0.000049  -0.000065   0.000005  -0.001733
     3  C   -0.000009   0.000050   0.000040   0.000860   0.000060  -0.039633
     4  O    0.000001  -0.000003  -0.000022   0.008118   0.000266   0.003343
     5  C   -0.000009   0.000007   0.000027   0.000155  -0.000011  -0.000944
     6  C   -0.000026  -0.000001  -0.000009   0.000150   0.000031  -0.000140
     7  C   -0.000001  -0.000000   0.000000  -0.000001   0.000001  -0.000058
     8  C   -0.000000  -0.000000  -0.000000   0.000000  -0.000000   0.000000
     9  C    0.000000   0.000000   0.000000  -0.000000   0.000000  -0.000002
    10  C    0.000000  -0.000000  -0.000000   0.000000   0.000000  -0.000067
    11  C   -0.000001   0.000000   0.000000  -0.000002  -0.000000   0.000118
    12  C   -0.000000   0.000000  -0.000000   0.000000   0.000000   0.000526
    13  C   -0.000000  -0.000001   0.000000  -0.000002  -0.000000   0.001689
    14  C   -0.000000  -0.000000  -0.000000   0.000000   0.000000  -0.000066
    15  C   -0.000000  -0.000000   0.000000  -0.000000  -0.000000   0.000001
    16  O    0.000000   0.000000  -0.000000  -0.000000  -0.000000  -0.000000
    17  C   -0.000000  -0.000000   0.000000  -0.000000  -0.000000   0.000024
    18  C    0.000009  -0.000146   0.000071   0.000387  -0.000162   0.000005
    19  C   -0.006097   0.005425   0.005255  -0.003991  -0.005691  -0.003509
    20  C   -0.027822  -0.028405  -0.028483  -0.024410  -0.032378  -0.033142
    21  C    0.368201   0.369215  -0.004972   0.004974  -0.006725  -0.007446
    22  C    0.005681  -0.004499   0.372484   0.372183   0.362808   0.005793
    23  C   -0.006266  -0.004628  -0.006387  -0.004508   0.005501   0.358883
    24  H   -0.000000  -0.000000  -0.000011  -0.000018  -0.000011  -0.000219
    25  H    0.000000   0.000000   0.000000  -0.000000   0.000000  -0.000000
    26  H   -0.000000   0.000000   0.000000   0.000000  -0.000000  -0.000000
    27  H    0.000000  -0.000000  -0.000000  -0.000000  -0.000000   0.000000
    28  H    0.000000  -0.000000   0.000000   0.000000  -0.000000  -0.000000
    29  H   -0.000000  -0.000000  -0.000000  -0.000000  -0.000000   0.000000
    30  H   -0.000000  -0.000000  -0.000000  -0.000000   0.000000   0.000008
    31  H    0.000000  -0.000000  -0.000000  -0.000000  -0.000000  -0.000000
    32  H   -0.000000   0.000000  -0.000000   0.000000   0.000000  -0.000000
    33  H    0.000000   0.000000   0.000000   0.000000  -0.000000  -0.000000
    34  H   -0.000000   0.000000  -0.000000   0.000000   0.000000  -0.000000
    35  H   -0.000000   0.000000  -0.000000   0.000000   0.000000   0.000000
    36  H   -0.000000   0.000000   0.000000  -0.000000  -0.000000   0.000039
    37  H   -0.000000   0.000000  -0.000000  -0.000000   0.000000  -0.000005
    38  H    0.000002   0.000000  -0.000156   0.003295   0.000148   0.000026
    39  H   -0.000001   0.000002   0.000003  -0.000086  -0.000030  -0.000003
    40  H    0.005286   0.000054  -0.000165  -0.000089  -0.000014   0.002467
    41  H   -0.000208  -0.000097   0.000026  -0.000053   0.005107  -0.000110
    42  H   -0.029101  -0.029042  -0.000111  -0.000002   0.004391   0.000129
    43  H    0.577121  -0.029568  -0.000030  -0.000170   0.000021   0.005122
    44  H   -0.029568   0.571175   0.003793  -0.000043  -0.000121  -0.000259
    45  H   -0.000030   0.003793   0.568707  -0.026212  -0.030461  -0.000014
    46  H   -0.000170  -0.000043  -0.026212   0.519519  -0.027445  -0.000098
    47  H    0.000021  -0.000121  -0.030461  -0.027445   0.598805  -0.000161
    48  H    0.005122  -0.000259  -0.000014  -0.000098  -0.000161   0.601528
    49  H   -0.000165   0.003913   0.005160   0.000027   0.000071  -0.029776
              49
     1  O    0.014057
     2  C   -0.005596
     3  C   -0.041791
     4  O   -0.000016
     5  C    0.005908
     6  C    0.000032
     7  C    0.000001
     8  C   -0.000000
     9  C   -0.000000
    10  C    0.000005
    11  C   -0.000009
    12  C   -0.000209
    13  C    0.001361
    14  C   -0.000041
    15  C    0.000001
    16  O    0.000000
    17  C    0.000049
    18  C   -0.000153
    19  C    0.005299
    20  C   -0.030839
    21  C   -0.004618
    22  C   -0.007360
    23  C    0.356087
    24  H   -0.000257
    25  H   -0.000000
    26  H    0.000000
    27  H    0.000000
    28  H    0.000000
    29  H   -0.000000
    30  H    0.000001
    31  H    0.000000
    32  H   -0.000008
    33  H   -0.000000
    34  H   -0.000000
    35  H   -0.000001
    36  H   -0.000008
    37  H    0.000044
    38  H   -0.000022
    39  H    0.000003
    40  H   -0.000059
    41  H   -0.000137
    42  H   -0.000074
    43  H   -0.000165
    44  H    0.003913
    45  H    0.005160
    46  H    0.000027
    47  H    0.000071
    48  H   -0.029776
    49  H    0.560889
 Mulliken charges:
               1
     1  O   -0.477534
     2  C    0.331747
     3  C    0.186188
     4  O   -0.628637
     5  C    0.027415
     6  C    0.047144
     7  C    0.118949
     8  C   -0.536164
     9  C   -0.191064
    10  C   -0.201711
    11  C    0.143078
    12  C   -0.246942
    13  C    0.042186
    14  C    0.282037
    15  C   -0.466087
    16  O   -0.660299
    17  C   -0.468257
    18  C   -0.354275
    19  C   -0.260587
    20  C    0.081417
    21  C   -0.447330
    22  C   -0.448919
    23  C   -0.292404
    24  H    0.397892
    25  H    0.168359
    26  H    0.157115
    27  H    0.167747
    28  H    0.131800
    29  H    0.141274
    30  H    0.185002
    31  H    0.150667
    32  H    0.184833
    33  H    0.126822
    34  H    0.394368
    35  H    0.127625
    36  H    0.154010
    37  H    0.181475
    38  H    0.181167
    39  H    0.136935
    40  H    0.130183
    41  H    0.130580
    42  H    0.140162
    43  H    0.138030
    44  H    0.143188
    45  H    0.141510
    46  H    0.177537
    47  H    0.125997
    48  H    0.137540
    49  H    0.168230
 Sum of Mulliken charges =  -0.00000
 Mulliken charges with hydrogens summed into heavy atoms:
               1
     1  O   -0.477534
     2  C    0.331747
     3  C    0.186188
     4  O   -0.230745
     5  C    0.027415
     6  C    0.047144
     7  C    0.118949
     8  C   -0.042943
     9  C   -0.059264
    10  C   -0.060437
    11  C    0.143078
    12  C   -0.061940
    13  C    0.042186
    14  C    0.282037
    15  C   -0.003765
    16  O   -0.265931
    17  C   -0.005147
    18  C   -0.036173
    19  C    0.000177
    20  C    0.081417
    21  C   -0.025950
    22  C   -0.003874
    23  C    0.013366
 Electronic spatial extent (au):  <R**2>=           7415.0205
 Charge=             -0.0000 electrons
 Dipole moment (field-independent basis, Debye):
    X=             -0.2052    Y=              2.4440    Z=              0.5855  Tot=              2.5216
 Quadrupole moment (field-independent basis, Debye-Ang):
   XX=           -121.9158   YY=           -139.1770   ZZ=           -137.9355
   XY=             -0.8111   XZ=              1.3861   YZ=             -3.9561
 Traceless Quadrupole moment (field-independent basis, Debye-Ang):
   XX=             11.0936   YY=             -6.1676   ZZ=             -4.9260
   XY=             -0.8111   XZ=              1.3861   YZ=             -3.9561
 Octapole moment (field-independent basis, Debye-Ang**2):
  XXX=             90.6276  YYY=             28.5902  ZZZ=            -23.6877  XYY=            -11.5972
  XXY=             14.5703  XXZ=              7.5102  XZZ=             10.4206  YZZ=             -0.1886
  YYZ=             13.6749  XYZ=             -3.3961
 Hexadecapole moment (field-independent basis, Debye-Ang**3):
 XXXX=          -5263.3484 YYYY=          -3112.3525 ZZZZ=           -744.8722 XXXY=             25.1867
 XXXZ=            100.8310 YYYX=            -22.4424 YYYZ=             36.7048 ZZZX=             12.3528
 ZZZY=             14.9404 XXYY=          -1526.8469 XXZZ=          -1140.3797 YYZZ=           -703.2166
 XXYZ=             -2.1843 YYXZ=              9.6852 ZZXY=              4.0828
 N-N= 2.070200703860D+03 E-N=-6.472134476140D+03  KE= 9.935856326712D+02
 1\1\GINC-C071\SP\RCAM-B3LYP TD-FC\6-31G(d)\C20H26O3\XYCAO\28-Dec-2023\
 0\\# td=(nstates=20,root=20) cam-b3lyp/6-31g(d)\\Title\\0,1\O,0,1.9193
 17,-1.822238,-0.918257\C,0,1.451094,-0.772971,-0.486848\C,0,-0.11271,-
 0.626747,-0.51356\O,0,-0.533154,-1.061943,-1.814222\C,0,-0.63254,0.786
 363,-0.217838\C,0,-2.003982,1.096172,-0.313821\C,0,-2.440805,2.418444,
 -0.054848\C,0,-3.898098,2.818056,-0.150945\C,0,-1.507275,3.394422,0.31
 4158\C,0,-0.163461,3.083079,0.442344\C,0,0.287509,1.782219,0.177586\C,
 0,1.703948,1.496571,0.324215\C,0,2.290515,0.309814,0.040027\C,0,3.7973
 41,0.10008,0.188273\C,0,4.463035,-0.118113,-1.183256\O,0,4.306622,1.31
 5568,0.765032\C,0,4.098751,-1.069136,1.143367\C,0,-3.020979,0.01265,-0
 .619404\C,0,-3.134268,-1.02501,0.520408\C,0,-2.087224,-2.163354,0.5264
 24\C,0,-2.275053,-2.963662,1.835143\C,0,-2.342138,-3.132189,-0.649517\
 C,0,-0.613181,-1.665368,0.530823\H,0,-0.064341,-0.522887,-2.471213\H,0
 ,-4.307707,2.649809,-1.154455\H,0,-4.018626,3.880972,0.079089\H,0,-4.5
 27828,2.256464,0.549915\H,0,-1.847945,4.407305,0.514084\H,0,0.55207,3.
 843107,0.745971\H,0,2.333106,2.308645,0.675368\H,0,4.288596,0.751035,-
 1.825808\H,0,4.071487,-1.013011,-1.67082\H,0,5.547295,-0.23941,-1.0553
 91\H,0,5.265775,1.201531,0.850398\H,0,5.184721,-1.182495,1.260673\H,0,
 3.666543,-0.868776,2.128997\H,0,3.696756,-2.007777,0.756129\H,0,-2.760
 735,-0.489397,-1.553814\H,0,-4.003351,0.464412,-0.770041\H,0,-3.100408
 ,-0.494129,1.482321\H,0,-4.125988,-1.495192,0.467796\H,0,-3.286205,-3.
 385441,1.889484\H,0,-2.127251,-2.330441,2.718738\H,0,-1.56399,-3.79658
 6,1.894933\H,0,-1.621022,-3.957953,-0.628618\H,0,-2.246517,-2.645515,-
 1.620687\H,0,-3.347711,-3.564751,-0.569039\H,0,-0.384798,-1.239084,1.5
 17372\H,0,0.022922,-2.549446,0.411802\\Version=ES64L-G16RevA.03\State=
 1-A\HF=-1002.9210692\RMSD=6.203e-09\PG=C01 [X(C20H26O3)]\\@


      TO SUSPECT YOUR OWN MORTALITY IS TO KNOW THE BEGINNING OF TERROR.
      TO LEARN IRREFUTABLY THAT YOU ARE MORTAL IS TO KNOW THE END
      OF TERROR.

                                                  -- JESSICA
                                                     CHILDREN OF DUNE
                                                     BY FRANK HERBERT
 Job cpu time:       0 days  1 hours 45 minutes 23.5 seconds.
 Elapsed time:       0 days  0 hours  3 minutes 18.3 seconds.
 File lengths (MBytes):  RWF=   1880 Int=      0 D2E=      0 Chk=    119 Scr=      1
 Normal termination of Gaussian 16 at Thu Dec 28 13:19:37 2023.
