 Entering Gaussian System, Link 0=g16
 Input=molecule_15_1_ECD.com
 Output=molecule_15_1_ECD.log
 Initial command:
 /share/apps/g16/A03/l1.exe "/tmp/954274.tmpdir/scr/Gau-14743.inp" -scrdir="/tmp/954274.tmpdir/scr/"
 Entering Link 1 = /share/apps/g16/A03/l1.exe PID=     14744.
  
 Copyright (c) 1988,1990,1992,1993,1995,1998,2003,2009,2016,
            Gaussian, Inc.  All Rights Reserved.
  
 This is part of the Gaussian(R) 16 program.  It is based on
 the Gaussian(R) 09 system (copyright 2009, Gaussian, Inc.),
 the Gaussian(R) 03 system (copyright 2003, Gaussian, Inc.),
 the Gaussian(R) 98 system (copyright 1998, Gaussian, Inc.),
 the Gaussian(R) 94 system (copyright 1995, Gaussian, Inc.),
 the Gaussian 92(TM) system (copyright 1992, Gaussian, Inc.),
 the Gaussian 90(TM) system (copyright 1990, Gaussian, Inc.),
 the Gaussian 88(TM) system (copyright 1988, Gaussian, Inc.),
 the Gaussian 86(TM) system (copyright 1986, Carnegie Mellon
 University), and the Gaussian 82(TM) system (copyright 1983,
 Carnegie Mellon University). Gaussian is a federally registered
 trademark of Gaussian, Inc.
  
 This software contains proprietary and confidential information,
 including trade secrets, belonging to Gaussian, Inc.
  
 This software is provided under written license and may be
 used, copied, transmitted, or stored only in accord with that
 written license.
  
 The following legend is applicable only to US Government
 contracts under FAR:
  
                    RESTRICTED RIGHTS LEGEND
  
 Use, reproduction and disclosure by the US Government is
 subject to restrictions as set forth in subparagraphs (a)
 and (c) of the Commercial Computer Software - Restricted
 Rights clause in FAR 52.227-19.
  
 Gaussian, Inc.
 340 Quinnipiac St., Bldg. 40, Wallingford CT 06492
  
  
 ---------------------------------------------------------------
 Warning -- This program may not be used in any manner that
 competes with the business of Gaussian, Inc. or will provide
 assistance to any competitor of Gaussian, Inc.  The licensee
 of this program is prohibited from giving any competitor of
 Gaussian, Inc. access to this program.  By using this program,
 the user acknowledges that Gaussian, Inc. is engaged in the
 business of creating and licensing software in the field of
 computational chemistry and represents and warrants to the
 licensee that it is not a competitor of Gaussian, Inc. and that
 it will not use this program in any manner prohibited above.
 ---------------------------------------------------------------
  

 Cite this work as:
 Gaussian 16, Revision A.03,
 M. J. Frisch, G. W. Trucks, H. B. Schlegel, G. E. Scuseria, 
 M. A. Robb, J. R. Cheeseman, G. Scalmani, V. Barone, 
 G. A. Petersson, H. Nakatsuji, X. Li, M. Caricato, A. V. Marenich, 
 J. Bloino, B. G. Janesko, R. Gomperts, B. Mennucci, H. P. Hratchian, 
 J. V. Ortiz, A. F. Izmaylov, J. L. Sonnenberg, D. Williams-Young, 
 F. Ding, F. Lipparini, F. Egidi, J. Goings, B. Peng, A. Petrone, 
 T. Henderson, D. Ranasinghe, V. G. Zakrzewski, J. Gao, N. Rega, 
 G. Zheng, W. Liang, M. Hada, M. Ehara, K. Toyota, R. Fukuda, 
 J. Hasegawa, M. Ishida, T. Nakajima, Y. Honda, O. Kitao, H. Nakai, 
 T. Vreven, K. Throssell, J. A. Montgomery, Jr., J. E. Peralta, 
 F. Ogliaro, M. J. Bearpark, J. J. Heyd, E. N. Brothers, K. N. Kudin, 
 V. N. Staroverov, T. A. Keith, R. Kobayashi, J. Normand, 
 K. Raghavachari, A. P. Rendell, J. C. Burant, S. S. Iyengar, 
 J. Tomasi, M. Cossi, J. M. Millam, M. Klene, C. Adamo, R. Cammi, 
 J. W. Ochterski, R. L. Martin, K. Morokuma, O. Farkas, 
 J. B. Foresman, and D. J. Fox, Gaussian, Inc., Wallingford CT, 2016.
 
 ******************************************
 Gaussian 16:  ES64L-G16RevA.03 25-Dec-2016
                28-Dec-2023 
 ******************************************
 %nprocs=32
 Will use up to   32 processors via shared memory.
 %chk=molecule_15_1_ECD.chk
 %mem=10GB
 --------------------------------------------
 # td=(nstates=20,root=20) cam-b3lyp/6-31g(d)
 --------------------------------------------
 1/38=1,172=1/1;
 2/12=2,17=6,18=5,40=1/2;
 3/5=1,6=6,7=1,11=9,25=1,30=1,74=-40/1,2,3,8;
 4//1;
 5/5=2,38=5/2;
 8/6=1,10=2,107=20,108=20/1;
 9/8=20,41=20,42=1,70=2/14;
 6/7=2,8=2,9=2,10=2/1;
 99/5=1,9=1/99;
 -----
 Title
 -----
 Symbolic Z-matrix:
 Charge =  0 Multiplicity = 1
 O                    -3.96899  -2.70348  -0.69678 
 C                    -3.12937  -1.7121   -0.29022 
 C                    -3.57593  -0.38054  -0.30288 
 O                    -4.87534  -0.1611   -0.74664 
 C                    -5.7839    0.25812   0.28477 
 C                    -2.71198   0.64504   0.09139 
 O                    -3.1323    1.9605    0.08995 
 C                    -3.39019   2.51121  -1.20763 
 C                    -1.41302   0.36557   0.54551 
 C                    -1.00953  -0.98109   0.57793 
 O                     0.24402  -1.3565    0.98772 
 C                     0.98692  -0.37757   1.72615 
 C                     0.9833    0.98319   1.02869 
 C                     1.62767   0.93336  -0.38074 
 C                     3.07658   0.49548  -0.39514 
 C                     3.42993  -0.85049  -0.58189 
 C                     4.75949  -1.26361  -0.5776 
 C                     5.77726  -0.32406  -0.38511 
 O                     7.06895  -0.77881  -0.39324 
 C                     5.44984   1.02226  -0.1986 
 C                     4.11218   1.41841  -0.20545 
 C                    -0.47498   1.47674   0.97376 
 C                    -1.84561  -2.01602   0.1485 
 H                    -4.77768  -2.25321  -1.00486 
 H                    -5.47635   1.22144   0.70224 
 H                    -5.83343  -0.48876   1.08686 
 H                    -6.76323   0.35341  -0.19054 
 H                    -3.68083   3.55133  -1.04204 
 H                    -2.48611   2.48053  -1.82912 
 H                    -4.1978    1.97537  -1.71576 
 H                     0.5559   -0.28639   2.73406 
 H                     1.99277  -0.79249   1.81382 
 H                     1.57232   1.67213   1.64923 
 H                     1.03453   0.26842  -1.01872 
 H                     1.54505   1.93701  -0.81787 
 H                     2.64465  -1.58799  -0.73006 
 H                     5.02644  -2.30534  -0.72595 
 H                     7.66625  -0.02772  -0.25396 
 H                     6.23787   1.76017  -0.05543 
 H                     3.87401   2.47131  -0.06778 
 H                    -0.77038   1.85469   1.96287 
 H                    -0.56799   2.3304    0.29278 
 H                    -1.49869  -3.04256   0.17351 
 
                          Input orientation:                          
 ---------------------------------------------------------------------
 Center     Atomic      Atomic             Coordinates (Angstroms)
 Number     Number       Type             X           Y           Z
 ---------------------------------------------------------------------
      1          8           0       -3.968987   -2.703483   -0.696782
      2          6           0       -3.129373   -1.712100   -0.290220
      3          6           0       -3.575926   -0.380541   -0.302880
      4          8           0       -4.875341   -0.161101   -0.746640
      5          6           0       -5.783898    0.258117    0.284773
      6          6           0       -2.711984    0.645042    0.091393
      7          8           0       -3.132295    1.960504    0.089949
      8          6           0       -3.390192    2.511215   -1.207626
      9          6           0       -1.413016    0.365569    0.545508
     10          6           0       -1.009533   -0.981090    0.577925
     11          8           0        0.244019   -1.356500    0.987721
     12          6           0        0.986919   -0.377570    1.726149
     13          6           0        0.983301    0.983189    1.028691
     14          6           0        1.627671    0.933355   -0.380736
     15          6           0        3.076579    0.495480   -0.395140
     16          6           0        3.429927   -0.850493   -0.581893
     17          6           0        4.759487   -1.263605   -0.577604
     18          6           0        5.777265   -0.324060   -0.385114
     19          8           0        7.068946   -0.778808   -0.393242
     20          6           0        5.449838    1.022260   -0.198598
     21          6           0        4.112176    1.418406   -0.205446
     22          6           0       -0.474979    1.476737    0.973763
     23          6           0       -1.845605   -2.016017    0.148501
     24          1           0       -4.777680   -2.253207   -1.004859
     25          1           0       -5.476347    1.221440    0.702240
     26          1           0       -5.833429   -0.488761    1.086864
     27          1           0       -6.763234    0.353412   -0.190542
     28          1           0       -3.680829    3.551325   -1.042036
     29          1           0       -2.486105    2.480530   -1.829117
     30          1           0       -4.197805    1.975365   -1.715759
     31          1           0        0.555900   -0.286388    2.734057
     32          1           0        1.992771   -0.792485    1.813815
     33          1           0        1.572319    1.672133    1.649234
     34          1           0        1.034530    0.268422   -1.018721
     35          1           0        1.545053    1.937006   -0.817866
     36          1           0        2.644651   -1.587988   -0.730063
     37          1           0        5.026442   -2.305344   -0.725947
     38          1           0        7.666254   -0.027718   -0.253960
     39          1           0        6.237872    1.760165   -0.055431
     40          1           0        3.874012    2.471309   -0.067783
     41          1           0       -0.770380    1.854686    1.962865
     42          1           0       -0.567991    2.330399    0.292781
     43          1           0       -1.498685   -3.042559    0.173512
 ---------------------------------------------------------------------
                    Distance matrix (angstroms):
                    1          2          3          4          5
     1  O    0.000000
     2  C    1.361280   0.000000
     3  C    2.388664   1.404500   0.000000
     4  O    2.699568   2.379563   1.390524   0.000000
     5  C    3.609491   3.355425   2.372417   1.437022   0.000000
     6  C    3.662499   2.424038   1.397737   2.456070   3.102219
     7  O    4.803309   3.692229   2.414874   2.870418   3.157068
     8  C    5.271531   4.329671   3.035674   3.091836   3.610199
     9  C    4.182745   2.821530   2.440209   3.732924   4.379970
    10  C    3.653749   2.404532   2.779002   4.167892   4.941268
    11  O    4.733005   3.624825   4.148509   5.535778   6.279881
    12  C    5.986775   4.773947   4.993648   6.366132   6.951664
    13  C    6.410457   5.090992   4.941598   6.227751   6.846468
    14  C    6.681995   5.443904   5.367477   6.604611   7.471961
    15  C    7.743665   6.587735   6.710570   7.986719   8.889695
    16  C    7.628283   6.622073   7.027139   8.335459   9.320660
    17  C    8.847243   7.906823   8.386560   9.699175  10.687483
    18  C   10.037341   9.014647   9.353723  10.659985  11.595179
    19  O   11.208589  10.241453  10.652703  11.965469  12.912417
    20  C   10.141184   9.004886   9.134722  10.407210  11.270066
    21  C    9.084964   7.889695   7.896367   9.141291   9.975914
    22  C    5.698513   4.337297   3.833428   5.000549   5.490388
    23  C    2.386601   1.390288   2.423332   3.663508   4.549770
    24  H    0.975523   1.876279   2.333209   2.110242   2.997061
    25  H    4.431074   3.885733   2.681084   2.090904   1.094010
    26  H    3.400372   3.271825   2.653190   2.094524   1.097101
    27  H    4.172374   4.181055   3.272650   2.034234   1.092751
    28  H    6.270954   5.345369   4.002115   3.911039   4.126565
    29  H    5.509547   4.512222   3.420941   3.722690   4.503675
    30  H    4.793985   4.095254   2.816603   2.441871   3.076810
    31  H    6.171516   4.975957   5.128727   6.452079   6.818249
    32  H    6.745189   5.613289   5.971640   7.357006   7.994893
    33  H    7.440153   6.109044   5.876108   7.118517   7.614140
    34  H    5.828469   4.668112   4.710614   5.931702   6.941914
    35  H    7.207873   5.953540   5.644525   6.754893   7.599211
    36  H    6.707134   5.792082   6.351062   7.654186   8.687833
    37  H    9.004283   8.188963   8.825225  10.131313  11.156000
    38  H   11.947160  10.926299  11.247821  12.551977  13.463971
    39  H   11.158649   9.992849  10.047611  11.299227  12.120018
    40  H    9.417364   8.160747   7.980595   9.161965   9.914522
    41  H    6.171038   4.833550   4.242750   5.315592   5.522716
    42  H    6.155159   4.821034   4.092882   5.083427   5.612495
    43  H    2.640980   2.155067   3.410017   4.533353   5.410166
                    6          7          8          9         10
     6  C    0.000000
     7  O    1.380979   0.000000
     8  C    2.372766   1.433002   0.000000
     9  C    1.404152   2.388990   3.403895   0.000000
    10  C    2.404030   3.660221   4.588238   1.406179   0.000000
    11  O    3.680697   4.817469   5.743366   2.430399   1.371225
    12  C    4.171336   5.011154   6.009261   2.775942   2.380856
    13  C    3.827271   4.332956   5.144261   2.521360   2.834249
    14  C    4.374773   4.892224   5.324691   3.228945   3.396907
    15  C    5.810899   6.397790   6.822203   4.588917   4.452351
    16  C    6.357123   7.170483   7.629328   5.118978   4.590320
    17  C    7.740373   8.551066   9.003525   6.481927   5.890387
    18  C    8.557661   9.210058   9.631074   7.282979   6.886201
    19  O    9.895899  10.573676  10.994591   8.610141   8.139159
    20  C    8.175679   8.638088   9.021156   6.934241   6.807340
    21  C    6.874254   7.270728   7.647491   5.674517   5.709917
    22  C    2.544501   2.841916   3.785112   1.515919   2.546242
    23  C    2.799126   4.179919   4.971987   2.452896   1.398033
    24  H    3.724072   4.654166   4.966483   4.536804   4.280469
    25  H    2.889130   2.532922   3.108561   4.155447   4.981869
    26  H    3.466971   3.780061   4.498216   4.534644   4.875590
    27  H    4.071506   3.980595   4.131342   5.400625   5.956216
    28  H    3.266466   2.028051   1.092574   4.220464   5.504805
    29  H    2.666158   2.090647   1.097527   3.356102   4.467318
    30  H    2.691323   2.096691   1.094337   3.931898   4.915963
    31  H    4.304684   5.063854   6.239799   3.015199   2.753561
    32  H    5.212288   6.067698   7.001416   3.814325   3.252203
    33  H    4.673012   4.964667   5.787247   3.440573   3.853992
    34  H    3.925629   4.631924   4.964269   2.906326   2.879019
    35  H    4.540736   4.764689   4.983801   3.616404   4.121823
    36  H    5.861293   6.829152   7.311010   4.680612   3.928386
    37  H    8.322023   9.242734   9.709325   7.086395   6.315594
    38  H   10.405753  10.985443  11.384228   9.122882   8.767567
    39  H    9.020254   9.373436   9.725803   7.800135   7.774349
    40  H    6.836368   7.026673   7.353196   5.723891   6.015398
    41  H    2.955583   3.016232   4.164908   2.153915   3.164945
    42  H    2.734537   2.598772   3.201364   2.153717   3.352943
    43  H    3.882942   5.263678   6.027416   3.429440   2.156959
                   11         12         13         14         15
    11  O    0.000000
    12  C    1.433695   0.000000
    13  C    2.454050   1.529093   0.000000
    14  C    3.005096   2.562821   1.550542   0.000000
    15  C    3.655890   3.103025   2.578171   1.513696   0.000000
    16  C    3.587442   3.393966   3.455770   2.543758   1.404057
    17  C    4.779992   4.508282   4.678445   3.830622   2.441281
    18  C    5.793740   5.235237   5.166221   4.335925   2.822313
    19  O    6.987161   6.453206   6.493197   5.704308   4.190800
    20  C    5.845203   5.057847   4.632248   3.827537   2.438951
    21  C    4.907789   4.089477   3.391514   2.537472   1.400085
    22  C    2.923078   2.478242   1.540515   2.559506   3.930690
    23  C    2.346440   3.632723   4.215766   4.587214   5.552572
    24  H    5.476488   6.648836   6.913645   7.181381   8.343646
    25  H    6.280912   6.736396   6.472278   7.191864   8.653543
    26  H    6.139884   6.851146   6.974083   7.735908   9.085885
    27  H    7.308468   8.017039   7.867144   8.413073   9.842965
    28  H    6.603869   6.699771   5.712910   5.955775   7.444409
    29  H    5.487345   5.733284   4.737708   4.627603   6.077842
    30  H    6.175753   6.653149   5.946451   6.066650   7.539944
    31  H    2.071738   1.099986   2.168587   3.512606   4.093533
    32  H    2.014616   1.091594   2.188257   2.815648   2.777224
    33  H    3.372625   2.133047   1.098481   2.160934   2.797637
    34  H    2.700202   2.820263   2.169196   1.095891   2.147178
    35  H    3.974923   3.484363   2.152929   1.097827   2.145289
    36  H    2.960980   3.200963   3.530475   2.741067   2.153967
    37  H    5.168030   5.103610   5.499108   4.707439   3.428704
    38  H    7.641793   6.975439   6.879607   6.115899   4.621557
    39  H    6.835791   5.942764   5.421211   4.695039   3.421784
    40  H    5.379875   4.435043   3.431176   2.740308   2.155681
    41  H    3.505942   2.850807   2.169697   3.477350   4.712401
    42  H    3.838688   3.435897   2.182440   2.688176   4.138001
    43  H    2.557880   3.961196   4.806062   5.088142   5.811551
                   16         17         18         19         20
    16  C    0.000000
    17  C    1.392268   0.000000
    18  C    2.413680   1.398452   0.000000
    19  O    3.644611   2.366985   1.369417   0.000000
    20  C    2.781036   2.417728   1.398061   2.429659   0.000000
    21  C    2.398975   2.784007   2.416814   3.688564   1.395105
    22  C    4.804618   6.108670   6.646802   7.991683   6.056768
    23  C    5.451895   6.687346   7.826596   9.016285   7.910442
    24  H    8.337345   9.597886  10.747677  11.953680  10.769441
    25  H    9.233830  10.610643  11.411165  12.750900  10.965067
    26  H    9.419414  10.750847  11.704788  12.990232  11.456339
    27  H   10.271469  11.642064  12.560292  13.879921  12.231376
    28  H    8.375595   9.728216  10.242348  11.607267   9.511921
    29  H    6.902950   8.251269   8.845007  10.197256   8.231910
    30  H    8.213003   9.592674  10.322790  11.673654   9.812604
    31  H    4.424225   5.439871   6.082212   7.241702   5.853516
    32  H    2.794316   3.687215   4.401943   5.535236   4.392541
    33  H    3.846073   4.871900   5.079855   6.355449   4.344188
    34  H    2.679686   4.051789   4.821413   6.156467   4.553660
    35  H    3.373216   4.542491   4.817812   6.170036   4.058029
    36  H    1.087434   2.144994   3.395552   4.510278   3.868452
    37  H    2.164764   1.085583   2.146017   2.571542   3.395631
    38  H    4.327929   3.175131   1.916585   0.969697   2.453165
    39  H    3.870046   3.406093   2.159825   2.692802   1.089035
    40  H    3.390559   3.872153   3.396639   4.569112   2.144780
    41  H    5.606814   6.837920   7.289142   8.598928   6.637467
    42  H    5.183288   6.485095   6.911437   8.274092   6.177940
    43  H    5.446743   6.549318   7.787281   8.879757   8.058734
                   21         22         23         24         25
    21  C    0.000000
    22  C    4.736658   0.000000
    23  C    6.885905   3.841745   0.000000
    24  H    9.651391   6.028322   3.159678   0.000000
    25  H    9.633403   5.015235   4.895921   3.933890   0.000000
    26  H   10.208938   5.708674   4.372159   2.933118   1.788919
    27  H   10.927441   6.493044   5.469206   3.376389   1.790701
    28  H    8.122817   4.317967   5.981699   5.907373   3.419758
    29  H    6.877625   3.592821   4.953801   5.323437   4.115170
    30  H    8.464457   4.619696   4.993940   4.326945   2.837215
    31  H    4.918750   2.696286   3.929878   6.804039   6.541394
    32  H    3.668424   3.456132   4.359293   7.477810   7.815319
    33  H    3.155169   2.164687   5.247557   7.923067   7.126262
    34  H    3.384639   2.776443   3.856974   6.335660   6.801578
    35  H    2.689633   2.739035   5.296869   7.587477   7.219613
    36  H    3.386334   4.693363   4.595376   7.457146   8.711773
    37  H    3.869511   6.889034   6.933498   9.808227  11.170788
    38  H    3.837330   8.369610   9.725779  12.663654  13.236415
    39  H    2.158214   6.797201   8.924334  11.762268  11.751052
    40  H    1.088245   4.581235   7.273025   9.902067   9.464899
    41  H    5.360155   1.099286   4.407989   6.460698   4.912871
    42  H    4.794155   1.095959   4.532598   6.357263   5.048703
    43  H    7.178132   4.702384   1.083867   3.572596   5.855172
                   26         27         28         29         30
    26  H    0.000000
    27  H    1.790407   0.000000
    28  H    5.048584   4.522489   0.000000
    29  H    5.340806   5.050088   1.787027   0.000000
    30  H    4.074540   3.396829   1.790200   1.788284   0.000000
    31  H    6.601343   7.907740   6.851043   6.142653   6.893047
    32  H    7.865756   9.055283   7.695083   6.636559   7.644744
    33  H    7.735039   8.637433   6.194341   5.405852   6.686513
    34  H    7.223273   7.842081   5.745660   4.236158   5.547688
    35  H    7.997146   8.481093   5.474132   4.191453   5.812753
    36  H    8.739987   9.621248   8.156075   6.639685   7.777422
    37  H   11.158990  12.097607  10.498431   8.975519  10.217188
    38  H   13.573939  14.434660  11.924215  10.575577  12.120441
    39  H   12.332024  13.077690  10.127303   8.931554  10.569123
    40  H   10.214188  10.846730   7.693583   6.599505   8.253243
    41  H    5.647441   6.542575   4.514280   4.208862   5.029322
    42  H    6.025203   6.520975   3.600300   2.864289   4.163632
    43  H    5.113326   6.275399   7.051143   5.957351   6.002846
                   31         32         33         34         35
    31  H    0.000000
    32  H    1.779769   0.000000
    33  H    2.458811   2.505635   0.000000
    34  H    3.823643   3.172855   3.062288   0.000000
    35  H    4.305585   3.817894   2.481428   1.756459   0.000000
    36  H    4.249373   2.743918   4.176043   2.474282   3.693563
    37  H    6.002796   4.235834   5.778648   4.758713   5.488720
    38  H    7.717013   6.086787   6.606639   6.682239   6.453467
    39  H    6.652400   5.294430   4.967999   5.497999   4.757639
    40  H    5.144421   4.210918   2.980708   3.717479   2.504427
    41  H    2.634000   3.829456   2.370639   3.829333   3.619457
    42  H    3.751071   4.315490   2.618054   2.922304   2.419349
    43  H    4.286512   4.465836   5.816970   4.336034   5.919733
                   36         37         38         39         40
    36  H    0.000000
    37  H    2.487478   0.000000
    38  H    5.279925   3.518375   0.000000
    39  H    4.957469   4.294825   2.297001   0.000000
    40  H    4.292765   4.957589   4.545426   2.468545   0.000000
    41  H    5.546738   7.624874   8.923819   7.293699   5.106284
    42  H    5.169239   7.336593   8.582682   6.838581   4.458840
    43  H    4.483242   6.627956   9.657541   9.108945   7.702392
                   41         42         43
    41  H    0.000000
    42  H    1.748269   0.000000
    43  H    5.264525   5.454273   0.000000
 Stoichiometry    C18H20O5
 Framework group  C1[X(C18H20O5)]
 Deg. of freedom   123
 Full point group                 C1      NOp   1
 Largest Abelian subgroup         C1      NOp   1
 Largest concise Abelian subgroup C1      NOp   1
                         Standard orientation:                         
 ---------------------------------------------------------------------
 Center     Atomic      Atomic             Coordinates (Angstroms)
 Number     Number       Type             X           Y           Z
 ---------------------------------------------------------------------
      1          8           0        3.968987    2.703483   -0.696782
      2          6           0        3.129373    1.712100   -0.290220
      3          6           0        3.575926    0.380541   -0.302880
      4          8           0        4.875341    0.161101   -0.746640
      5          6           0        5.783898   -0.258117    0.284773
      6          6           0        2.711984   -0.645042    0.091393
      7          8           0        3.132295   -1.960504    0.089949
      8          6           0        3.390192   -2.511215   -1.207626
      9          6           0        1.413016   -0.365569    0.545508
     10          6           0        1.009533    0.981090    0.577925
     11          8           0       -0.244019    1.356500    0.987721
     12          6           0       -0.986919    0.377570    1.726149
     13          6           0       -0.983301   -0.983189    1.028691
     14          6           0       -1.627671   -0.933355   -0.380736
     15          6           0       -3.076579   -0.495480   -0.395140
     16          6           0       -3.429927    0.850493   -0.581893
     17          6           0       -4.759487    1.263605   -0.577604
     18          6           0       -5.777265    0.324060   -0.385114
     19          8           0       -7.068946    0.778808   -0.393242
     20          6           0       -5.449838   -1.022260   -0.198598
     21          6           0       -4.112176   -1.418406   -0.205446
     22          6           0        0.474979   -1.476737    0.973763
     23          6           0        1.845605    2.016017    0.148501
     24          1           0        4.777680    2.253207   -1.004859
     25          1           0        5.476347   -1.221440    0.702240
     26          1           0        5.833429    0.488761    1.086864
     27          1           0        6.763234   -0.353412   -0.190542
     28          1           0        3.680829   -3.551325   -1.042036
     29          1           0        2.486105   -2.480530   -1.829117
     30          1           0        4.197805   -1.975365   -1.715759
     31          1           0       -0.555900    0.286388    2.734057
     32          1           0       -1.992771    0.792485    1.813815
     33          1           0       -1.572319   -1.672133    1.649234
     34          1           0       -1.034530   -0.268422   -1.018721
     35          1           0       -1.545053   -1.937006   -0.817866
     36          1           0       -2.644651    1.587988   -0.730063
     37          1           0       -5.026442    2.305344   -0.725947
     38          1           0       -7.666254    0.027718   -0.253960
     39          1           0       -6.237872   -1.760165   -0.055431
     40          1           0       -3.874012   -2.471309   -0.067783
     41          1           0        0.770380   -1.854686    1.962865
     42          1           0        0.567991   -2.330399    0.292781
     43          1           0        1.498685    3.042559    0.173512
 ---------------------------------------------------------------------
 Rotational constants (GHZ):           0.6672167           0.1096678           0.1004893
 Standard basis: 6-31G(d) (6D, 7F)
 There are   385 symmetry adapted cartesian basis functions of A   symmetry.
 There are   385 symmetry adapted basis functions of A   symmetry.
   385 basis functions,   724 primitive gaussians,   385 cartesian basis functions
    84 alpha electrons       84 beta electrons
       nuclear repulsion energy      1913.2916185697 Hartrees.
 NAtoms=   43 NActive=   43 NUniq=   43 SFac= 1.00D+00 NAtFMM=   60 NAOKFM=F Big=F
 Integral buffers will be    131072 words long.
 Raffenetti 1 integral format.
 Two-electron integral symmetry is turned on.
 One-electron integrals computed using PRISM.
 NBasis=   385 RedAO= T EigKep=  2.78D-04  NBF=   385
 NBsUse=   385 1.00D-06 EigRej= -1.00D+00 NBFU=   385
 ExpMin= 1.61D-01 ExpMax= 5.48D+03 ExpMxC= 8.25D+02 IAcc=3 IRadAn=         5 AccDes= 0.00D+00
 Harris functional with IExCor=20419 and IRadAn=       5 diagonalized for initial guess.
 HarFok:  IExCor=20419 AccDes= 0.00D+00 IRadAn=         5 IDoV= 1 UseB2=F ITyADJ=14
 ICtDFT=  3500011 ScaDFX=  1.000000  1.000000  1.000000  1.000000
 FoFCou: FMM=F IPFlag=           0 FMFlag=      100000 FMFlg1=           0
         NFxFlg=           0 DoJE=T BraDBF=F KetDBF=T FulRan=T
         wScrn=  0.000000 ICntrl=       500 IOpCl=  0 I1Cent=   200000004 NGrid=           0
         NMat0=    1 NMatS0=      1 NMatT0=    0 NMatD0=    1 NMtDS0=    0 NMtDT0=    0
 Petite list used in FoFCou.
 Requested convergence on RMS density matrix=1.00D-08 within 128 cycles.
 Requested convergence on MAX density matrix=1.00D-06.
 Requested convergence on             energy=1.00D-06.
 No special actions if energy rises.
 Integral accuracy reduced to 1.0D-05 until final iterations.
 Initial convergence to 1.0D-05 achieved.  Increase integral accuracy.
 SCF Done:  E(RCAM-B3LYP) =  -1073.51844482     A.U. after   14 cycles
            NFock= 14  Conv=0.74D-08     -V/T= 2.0091
 DoSCS=F DFT=T ScalE2(SS,OS)=  1.000000  1.000000
 ExpMin= 1.61D-01 ExpMax= 5.48D+03 ExpMxC= 8.25D+02 IAcc=3 IRadAn=         5 AccDes= 0.00D+00
 HarFok:  IExCor=  205 AccDes= 0.00D+00 IRadAn=         5 IDoV=-2 UseB2=F ITyADJ=14
 ICtDFT= 12500011 ScaDFX=  1.000000  1.000000  1.000000  1.000000
 GSVD:  LWork=        -713 too small for GESVD, short by        2990 words or        2990 for optimal perf.
 Range of M.O.s used for correlation:    24   385
 NBasis=   385 NAE=    84 NBE=    84 NFC=    23 NFV=     0
 NROrb=    362 NOA=    61 NOB=    61 NVA=   301 NVB=   301
 Orbital symmetries:
       Occupied  (A) (A) (A) (A) (A) (A) (A) (A) (A) (A) (A) (A)
                 (A) (A) (A) (A) (A) (A) (A) (A) (A) (A) (A) (A)
                 (A) (A) (A) (A) (A) (A) (A) (A) (A) (A) (A) (A)
                 (A) (A) (A) (A) (A) (A) (A) (A) (A) (A) (A) (A)
                 (A) (A) (A) (A) (A) (A) (A) (A) (A) (A) (A) (A)
                 (A) (A) (A) (A) (A) (A) (A) (A) (A) (A) (A) (A)
                 (A) (A) (A) (A) (A) (A) (A) (A) (A) (A) (A) (A)
       Virtual   (A) (A) (A) (A) (A) (A) (A) (A) (A) (A) (A) (A)
                 (A) (A) (A) (A) (A) (A) (A) (A) (A) (A) (A) (A)
                 (A) (A) (A) (A) (A) (A) (A) (A) (A) (A) (A) (A)
                 (A) (A) (A) (A) (A) (A) (A) (A) (A) (A) (A) (A)
                 (A) (A) (A) (A) (A) (A) (A) (A) (A) (A) (A) (A)
                 (A) (A) (A) (A) (A) (A) (A) (A) (A) (A) (A) (A)
                 (A) (A) (A) (A) (A) (A) (A) (A) (A) (A) (A) (A)
                 (A) (A) (A) (A) (A) (A) (A) (A) (A) (A) (A) (A)
                 (A) (A) (A) (A) (A) (A) (A) (A) (A) (A) (A) (A)
                 (A) (A) (A) (A) (A) (A) (A) (A) (A) (A) (A) (A)
                 (A) (A) (A) (A) (A) (A) (A) (A) (A) (A) (A) (A)
                 (A) (A) (A) (A) (A) (A) (A) (A) (A) (A) (A) (A)
                 (A) (A) (A) (A) (A) (A) (A) (A) (A) (A) (A) (A)
                 (A) (A) (A) (A) (A) (A) (A) (A) (A) (A) (A) (A)
                 (A) (A) (A) (A) (A) (A) (A) (A) (A) (A) (A) (A)
                 (A) (A) (A) (A) (A) (A) (A) (A) (A) (A) (A) (A)
                 (A) (A) (A) (A) (A) (A) (A) (A) (A) (A) (A) (A)
                 (A) (A) (A) (A) (A) (A) (A) (A) (A) (A) (A) (A)
                 (A) (A) (A) (A) (A) (A) (A) (A) (A) (A) (A) (A)
                 (A) (A) (A) (A) (A) (A) (A) (A) (A) (A) (A) (A)
                 (A) (A) (A) (A) (A) (A) (A) (A) (A) (A) (A) (A)
                 (A) (A) (A) (A) (A) (A) (A) (A) (A) (A) (A) (A)
                 (A) (A) (A) (A) (A) (A) (A) (A) (A) (A) (A) (A)
                 (A) (A) (A) (A) (A) (A) (A) (A) (A) (A) (A) (A)
                 (A) (A) (A) (A) (A) (A) (A) (A) (A) (A) (A) (A)
                 (A)
    80 initial guesses have been made.
 Convergence on wavefunction:    0.001000000000000
 Iteration     1 Dimension    80 NMult     0 NNew     80
 CISAX will form    80 AO SS matrices at one time.
 New state      1 was old state      2
 New state      2 was old state      3
 New state      3 was old state      7
 New state      4 was old state      1
 New state      5 was old state      9
 New state      6 was old state      4
 New state      7 was old state     16
 New state      8 was old state     24
 New state      9 was old state      5
 New state     10 was old state      6
 New state     11 was old state     21
 New state     12 was old state      8
 New state     13 was old state     22
 New state     14 was old state     10
 New state     15 was old state     11
 New state     16 was old state     12
 New state     17 was old state     31
 New state     18 was old state     25
 New state     19 was old state     37
 New state     20 was old state     28
 Iteration     2 Dimension   120 NMult    80 NNew     40
 New state      4 was old state      5
 New state      5 was old state      8
 New state      6 was old state      4
 New state      7 was old state     16
 New state      8 was old state      7
 New state      9 was old state      6
 New state     10 was old state     12
 New state     12 was old state      9
 New state     13 was old state     10
 New state     14 was old state     13
 New state     16 was old state     22
 New state     17 was old state     14
 New state     18 was old state     20
 New state     19 was old state     17
 New state     20 was old state     18
 Iteration     3 Dimension   160 NMult   120 NNew     40
 New state     12 was old state     13
 New state     13 was old state     12
 New state     14 was old state     16
 New state     15 was old state     14
 New state     16 was old state     15
 Iteration     4 Dimension   200 NMult   160 NNew     40
 Iteration     5 Dimension   236 NMult   200 NNew     36
 Iteration     6 Dimension   254 NMult   236 NNew     18
 ***********************************************************************
 Excited states from <AA,BB:AA,BB> singles matrix:
 ***********************************************************************
 
 Ground to excited state transition densities written to RWF  633
 Ground to excited state transition electric dipole moments (Au):
       state          X           Y           Z        Dip. S.      Osc.
         1         0.6171      0.1578     -0.1407      0.4255      0.0531
         2         0.1719      0.4527     -0.0733      0.2399      0.0308
         3        -0.2992      0.0871     -0.0340      0.0983      0.0140
         4        -1.1150      0.0634     -0.0403      1.2489      0.1857
         5         1.0465     -1.2590     -0.3095      2.7761      0.4406
         6         1.5706      0.6574     -0.4092      3.0664      0.4984
         7        -1.6193     -0.5702      0.4173      3.1214      0.5105
         8         0.2912     -0.1382     -0.0524      0.1066      0.0178
         9         0.3363     -0.1554      0.0316      0.1382      0.0236
        10        -0.3742      0.1008      0.0286      0.1510      0.0261
        11        -0.0016     -0.0539     -0.0219      0.0034      0.0006
        12         1.7236     -0.7606      0.2674      3.6207      0.6327
        13         0.4269      0.8112     -0.1279      0.8567      0.1512
        14         0.3062      0.8750     -0.1126      0.8719      0.1548
        15        -0.0719     -0.2725      0.0216      0.0799      0.0144
        16        -0.1083     -0.1950      0.0756      0.0555      0.0100
        17        -0.1133     -0.0078      0.0435      0.0148      0.0027
        18         0.0798     -0.0721     -0.0748      0.0172      0.0032
        19        -0.0325     -0.3236     -0.1465      0.1272      0.0240
        20        -0.0947     -0.0468      0.0987      0.0209      0.0040
 Ground to excited state transition velocity dipole moments (Au):
       state          X           Y           Z        Dip. S.      Osc.
         1        -0.1197     -0.0312      0.0245      0.0159      0.0567
         2        -0.0336     -0.0908      0.0152      0.0096      0.0333
         3         0.0644     -0.0166      0.0110      0.0045      0.0142
         4         0.2475     -0.0143      0.0088      0.0615      0.1840
         5        -0.2424      0.2880      0.0693      0.1465      0.4103
         6        -0.3748     -0.1551      0.0980      0.1742      0.4762
         7         0.3904      0.1376     -0.0952      0.1804      0.4902
         8        -0.0646      0.0409      0.0426      0.0077      0.0204
         9        -0.0820      0.0412     -0.0064      0.0085      0.0220
        10         0.0980     -0.0268     -0.0092      0.0104      0.0268
        11         0.0024      0.0208      0.0516      0.0031      0.0079
        12        -0.4508      0.1979     -0.0659      0.2467      0.6276
        13        -0.1102     -0.2098      0.0360      0.0575      0.1447
        14        -0.0791     -0.2254      0.0314      0.0581      0.1454
        15         0.0200      0.0711     -0.0035      0.0055      0.0135
        16         0.0319      0.0547     -0.0117      0.0042      0.0102
        17         0.0326      0.0035     -0.0095      0.0012      0.0028
        18        -0.0272      0.0176      0.0211      0.0015      0.0035
        19         0.0101      0.0841      0.0481      0.0095      0.0224
        20         0.0278      0.0174     -0.0300      0.0020      0.0046
 Ground to excited state transition magnetic dipole moments (Au):
       state          X           Y           Z
         1        -0.0811     -0.1103     -0.3685
         2        -0.1123      0.1169      0.6608
         3        -0.2107     -0.1979     -0.4586
         4        -0.1404     -0.0493      0.4557
         5        -0.0312     -0.0701      2.0902
         6         0.4341     -0.4325     -0.2365
         7        -0.4018      0.2608      0.1790
         8         0.2837     -0.8175      0.4577
         9        -0.0767     -0.0051     -0.0449
        10        -0.4038      0.5244     -0.0961
        11         0.0866      0.9760     -0.2880
        12         0.0285      0.2397     -1.5258
        13        -0.3389      0.4515      2.0545
        14        -0.1311      0.3844      1.8462
        15         0.0493     -0.1523     -0.3767
        16         0.4297      0.0151     -0.2413
        17        -0.0451     -0.0019      0.0639
        18         0.1213     -0.0140      0.1889
        19         0.1893     -0.4828      0.3857
        20         0.3025      0.3523     -0.0753
 Ground to excited state transition velocity quadrupole moments (Au):
       state          XX          YY          ZZ          XY          XZ          YZ
         1        -0.7311      0.0112      0.0291     -0.1895      0.0543     -0.0114
         2         0.4048     -0.0057     -0.0292      0.9182     -0.1264      0.0767
         3         0.5129     -0.1712     -0.0927     -0.0908      0.2973     -0.1201
         4        -2.8069      0.1763      0.1131      0.3575     -0.1666     -0.0007
         5        -1.5870      0.4583      0.0313      1.4135      0.1182     -0.0508
         6        -1.1649     -0.3920      0.2133     -1.1208      0.3108      0.1007
         7         1.3470      0.3185     -0.2000      1.0404     -0.2269     -0.0876
         8        -0.0771      0.1044     -0.1160      0.2208      0.2683      0.0961
         9         0.6392     -0.0143     -0.0151      0.0642      0.0398      0.0139
        10         0.1182     -0.1995     -0.0187      0.0093     -0.0776     -0.1296
        11        -0.0199      0.0120     -0.0631     -0.2236     -0.7599      0.0169
        12         8.4791     -0.1393     -0.2662     -0.9858      0.3656     -0.1635
        13         1.9503     -0.0124     -0.0715      2.0328     -0.2872      0.1611
        14         1.4184      0.0110     -0.1160      1.9857     -0.3102      0.2353
        15        -1.0486      0.0174      0.0419     -0.4983      0.0786     -0.0404
        16         0.5338      0.1364     -0.1128      0.1165      0.0217      0.1579
        17        -0.6867      0.0245      0.0083      0.1773     -0.0012      0.0331
        18         0.4658     -0.1394     -0.0382      0.1774     -0.0173     -0.0179
        19         0.5362     -0.2933      0.0758      0.6872      0.1148     -0.1873
        20        -0.0215      0.2049     -0.0682      0.1124     -0.0271     -0.0052
 <0|del|b> * <b|rxdel|0> + <0|del|b> * <b|delr+rdel|0>
 Rotatory Strengths (R) in cgs (10**-40 erg-esu-cm/Gauss)
       state          XX          YY          ZZ    R(velocity)    E-M Angle
         1       -16.0962     12.6598     19.0563      5.2066       85.22
         2         3.4317     -4.9786     13.2405      3.8979       87.26
         3         3.5348    -42.0848    -12.4142    -16.9881      114.85
         4         8.7320    -53.9943    -49.9664    -31.7429      104.63
         5       280.0993     99.1688     13.5381    130.9354       80.49
         6       -25.7011   -164.9987   -153.8510   -114.8503      115.68
         7       -70.5732   -157.1469   -170.0619   -132.5940      129.45
         8       -21.9061    -20.3308    -48.7740    -30.3370      112.13
         9        -2.7191      8.0641     12.2246      5.8565       38.97
        10       -20.9520    -69.9597    -52.9969    -47.9695      140.66
        11        13.0762     -4.1673      6.3124      5.0738       84.33
        12       189.7166    130.0988     44.7817    121.5324       79.86
        13       -10.4457     27.2230     27.5609     14.7794       88.14
        14       -47.9303    -16.7685     16.2617    -16.1457       92.29
        15       -17.4976     -0.3241     -4.5197     -7.4472      106.37
        16         1.4344     29.8983     13.9233     15.0853       56.90
        17        -2.9278      0.8780     -3.2631     -1.7710      141.33
        18         9.7729     -3.2205     -5.4424      0.3700       87.08
        19         1.6898    -18.1121    -33.9601    -16.7941      108.66
        20         6.7458     17.0842     17.4727     13.7676       36.53
 1/2[<0|r|b>*<b|rxdel|0> + (<0|rxdel|b>*<b|r|0>)*]
 Rotatory Strengths (R) in cgs (10**-40 erg-esu-cm/Gauss)
       state          XX          YY          ZZ     R(length)
         1        35.3765     12.3026    -36.6811      3.6660
         2        13.6543    -37.4365     34.2354      3.4844
         3       -44.5821     12.1956    -11.0195    -14.4687
         4      -110.7259      2.2112     12.9995    -31.8384
         5        23.1064    -62.4074    457.4632    139.3874
         6      -482.1563    201.0766    -68.4314   -116.5037
         7      -460.0575    105.1548    -52.8266   -135.9098
         8       -58.4173    -79.8744     16.9634    -40.4427
         9        18.2346     -0.5580      1.0025      6.2264
        10      -106.8504    -37.3946      1.9468    -47.4327
        11         0.0961     37.1881     -4.4656     10.9395
        12       -34.7520    128.9234    288.5084    127.5600
        13       102.3290   -258.9847    185.7497      9.6980
        14        28.3755   -237.8199    146.9638    -20.8269
        15         2.5045    -29.3598      5.7581     -7.0324
        16        32.9053      2.0765     12.8960     15.9593
        17        -3.6141     -0.0106     -1.9647     -1.8631
        18        -6.8520     -0.7136      9.9997      0.8114
        19         4.3521   -110.4921     39.9576    -22.0608
        20        20.2653     11.6536      5.2585     12.3925
  1/2[<0|del|b>*<b|r|0> + (<0|r|b>*<b|del|0>)*] (Au)
       state          X           Y           Z        Dip. S.   Osc.(frdel)
         1        -0.0739     -0.0049     -0.0034      0.0823      0.0548
         2        -0.0058     -0.0411     -0.0011      0.0480      0.0320
         3        -0.0193     -0.0014     -0.0004      0.0211      0.0141
         4        -0.2760     -0.0009     -0.0004      0.2772      0.1848
         5        -0.2536     -0.3626     -0.0214      0.6377      0.4251
         6        -0.5887     -0.1020     -0.0401      0.7308      0.4872
         7        -0.6321     -0.0784     -0.0397      0.7503      0.5002
         8        -0.0188     -0.0057     -0.0022      0.0267      0.0178
         9        -0.0276     -0.0064     -0.0002      0.0342      0.0228
        10        -0.0367     -0.0027     -0.0003      0.0396      0.0264
        11        -0.0000     -0.0011     -0.0011      0.0023      0.0015
        12        -0.7770     -0.1505     -0.0176      0.9452      0.6301
        13        -0.0471     -0.1702     -0.0046      0.2219      0.1479
        14        -0.0242     -0.1972     -0.0035      0.2250      0.1500
        15        -0.0014     -0.0194     -0.0001      0.0209      0.0139
        16        -0.0035     -0.0107     -0.0009      0.0150      0.0100
        17        -0.0037     -0.0000     -0.0004      0.0041      0.0028
        18        -0.0022     -0.0013     -0.0016      0.0050      0.0033
        19        -0.0003     -0.0272     -0.0070      0.0346      0.0231
        20        -0.0026     -0.0008     -0.0030      0.0064      0.0043

 Excitation energies and oscillator strengths:
 
 Excited State   1:      Singlet-A      5.0903 eV  243.57 nm  f=0.0531  <S**2>=0.000
      82 -> 88        -0.32432
      83 -> 88         0.12956
      84 -> 86         0.59479
 
 Excited State   2:      Singlet-A      5.2341 eV  236.88 nm  f=0.0308  <S**2>=0.000
      81 -> 87        -0.31050
      82 -> 85         0.20373
      83 -> 85         0.58818
 
 Excited State   3:      Singlet-A      5.7969 eV  213.88 nm  f=0.0140  <S**2>=0.000
      82 -> 86         0.40531
      83 -> 86        -0.16934
      84 -> 87         0.10071
      84 -> 88         0.52318
 
 Excited State   4:      Singlet-A      6.0678 eV  204.33 nm  f=0.1857  <S**2>=0.000
      81 -> 85         0.33040
      82 -> 87         0.18376
      83 -> 87         0.57793
 
 Excited State   5:      Singlet-A      6.4780 eV  191.39 nm  f=0.4406  <S**2>=0.000
      82 -> 86         0.47762
      83 -> 86        -0.20302
      84 -> 87        -0.10214
      84 -> 88        -0.40750
 
 Excited State   6:      Singlet-A      6.6341 eV  186.89 nm  f=0.4984  <S**2>=0.000
      82 -> 88         0.36783
      83 -> 88        -0.15211
      84 -> 85         0.50350
      84 -> 86         0.15424
      84 -> 88         0.12204
 
 Excited State   7:      Singlet-A      6.6751 eV  185.74 nm  f=0.5105  <S**2>=0.000
      81 -> 85        -0.10532
      82 -> 88        -0.36911
      83 -> 88         0.16001
      84 -> 85         0.43347
      84 -> 86        -0.31591
      84 -> 89         0.11382
 
 Excited State   8:      Singlet-A      6.8245 eV  181.67 nm  f=0.0178  <S**2>=0.000
      79 -> 89        -0.10287
      84 -> 85        -0.12827
      84 -> 89         0.63998
      84 -> 94        -0.10828
 
 Excited State   9:      Singlet-A      6.9665 eV  177.97 nm  f=0.0236  <S**2>=0.000
      84 -> 87         0.66771
      84 -> 88        -0.15003
 
 Excited State  10:      Singlet-A      7.0557 eV  175.72 nm  f=0.0261  <S**2>=0.000
      79 -> 86        -0.15680
      80 -> 85         0.10689
      80 -> 86         0.64799
 
 Excited State  11:      Singlet-A      7.1040 eV  174.53 nm  f=0.0006  <S**2>=0.000
      76 -> 90         0.14247
      82 -> 90         0.22770
      83 -> 90         0.63182
 
 Excited State  12:      Singlet-A      7.1327 eV  173.83 nm  f=0.6327  <S**2>=0.000
      81 -> 85         0.58669
      83 -> 87        -0.32493
 
 Excited State  13:      Singlet-A      7.2046 eV  172.09 nm  f=0.1512  <S**2>=0.000
      81 -> 87         0.44475
      82 -> 85        -0.35756
      83 -> 85         0.36617
 
 Excited State  14:      Singlet-A      7.2446 eV  171.14 nm  f=0.1548  <S**2>=0.000
      81 -> 87         0.41175
      82 -> 85         0.53149
      82 -> 89         0.10819
      83 -> 86         0.10265
 
 Excited State  15:      Singlet-A      7.3502 eV  168.68 nm  f=0.0144  <S**2>=0.000
      81 -> 87        -0.11105
      82 -> 86         0.27264
      83 -> 86         0.62723
 
 Excited State  16:      Singlet-A      7.3763 eV  168.08 nm  f=0.0100  <S**2>=0.000
      82 -> 85        -0.14279
      82 -> 89         0.59249
      82 -> 94        -0.13936
      83 -> 89        -0.23740
 
 Excited State  17:      Singlet-A      7.5611 eV  163.98 nm  f=0.0027  <S**2>=0.000
      82 -> 87         0.65457
      82 -> 88        -0.10830
      83 -> 87        -0.18833
 
 Excited State  18:      Singlet-A      7.6694 eV  161.66 nm  f=0.0032  <S**2>=0.000
      79 -> 86         0.19002
      82 -> 88         0.24843
      83 -> 88         0.59756
 
 Excited State  19:      Singlet-A      7.6917 eV  161.19 nm  f=0.0240  <S**2>=0.000
      79 -> 85         0.11129
      79 -> 86         0.57947
      79 -> 88        -0.15721
      80 -> 86         0.14778
      80 -> 88         0.11083
      82 -> 88        -0.10898
      83 -> 88        -0.20874
 
 Excited State  20:      Singlet-A      7.8283 eV  158.38 nm  f=0.0040  <S**2>=0.000
      79 -> 86        -0.19453
      79 -> 88        -0.19044
      80 -> 87         0.10486
      80 -> 88         0.59689
 This state for optimization and/or second-order correction.
 Total Energy, E(TD-HF/TD-DFT) =  -1073.23076173    
 Copying the excited state density for this state as the 1-particle RhoCI density.
 SavETr:  write IOETrn=   770 NScale= 10 NData=  16 NLR=1 NState=   20 LETran=     370.

 **********************************************************************

            Population analysis using the SCF density.

 **********************************************************************

 Orbital symmetries:
       Occupied  (A) (A) (A) (A) (A) (A) (A) (A) (A) (A) (A) (A)
                 (A) (A) (A) (A) (A) (A) (A) (A) (A) (A) (A) (A)
                 (A) (A) (A) (A) (A) (A) (A) (A) (A) (A) (A) (A)
                 (A) (A) (A) (A) (A) (A) (A) (A) (A) (A) (A) (A)
                 (A) (A) (A) (A) (A) (A) (A) (A) (A) (A) (A) (A)
                 (A) (A) (A) (A) (A) (A) (A) (A) (A) (A) (A) (A)
                 (A) (A) (A) (A) (A) (A) (A) (A) (A) (A) (A) (A)
       Virtual   (A) (A) (A) (A) (A) (A) (A) (A) (A) (A) (A) (A)
                 (A) (A) (A) (A) (A) (A) (A) (A) (A) (A) (A) (A)
                 (A) (A) (A) (A) (A) (A) (A) (A) (A) (A) (A) (A)
                 (A) (A) (A) (A) (A) (A) (A) (A) (A) (A) (A) (A)
                 (A) (A) (A) (A) (A) (A) (A) (A) (A) (A) (A) (A)
                 (A) (A) (A) (A) (A) (A) (A) (A) (A) (A) (A) (A)
                 (A) (A) (A) (A) (A) (A) (A) (A) (A) (A) (A) (A)
                 (A) (A) (A) (A) (A) (A) (A) (A) (A) (A) (A) (A)
                 (A) (A) (A) (A) (A) (A) (A) (A) (A) (A) (A) (A)
                 (A) (A) (A) (A) (A) (A) (A) (A) (A) (A) (A) (A)
                 (A) (A) (A) (A) (A) (A) (A) (A) (A) (A) (A) (A)
                 (A) (A) (A) (A) (A) (A) (A) (A) (A) (A) (A) (A)
                 (A) (A) (A) (A) (A) (A) (A) (A) (A) (A) (A) (A)
                 (A) (A) (A) (A) (A) (A) (A) (A) (A) (A) (A) (A)
                 (A) (A) (A) (A) (A) (A) (A) (A) (A) (A) (A) (A)
                 (A) (A) (A) (A) (A) (A) (A) (A) (A) (A) (A) (A)
                 (A) (A) (A) (A) (A) (A) (A) (A) (A) (A) (A) (A)
                 (A) (A) (A) (A) (A) (A) (A) (A) (A) (A) (A) (A)
                 (A) (A) (A) (A) (A) (A) (A) (A) (A) (A) (A) (A)
                 (A) (A) (A) (A) (A) (A) (A) (A) (A) (A) (A) (A)
                 (A) (A) (A) (A) (A) (A) (A) (A) (A) (A) (A) (A)
                 (A) (A) (A) (A) (A) (A) (A) (A) (A) (A) (A) (A)
                 (A) (A) (A) (A) (A) (A) (A) (A) (A) (A) (A) (A)
                 (A) (A) (A) (A) (A) (A) (A) (A) (A) (A) (A) (A)
                 (A) (A) (A) (A) (A) (A) (A) (A) (A) (A) (A) (A)
                 (A)
 The electronic state is 1-A.
 Alpha  occ. eigenvalues --  -19.24919 -19.24702 -19.23953 -19.23945 -19.23877
 Alpha  occ. eigenvalues --  -10.32022 -10.31851 -10.31601 -10.31600 -10.30974
 Alpha  occ. eigenvalues --  -10.30593 -10.30480 -10.30239 -10.26667 -10.26264
 Alpha  occ. eigenvalues --  -10.26116 -10.26024 -10.25926 -10.25802 -10.25782
 Alpha  occ. eigenvalues --  -10.25644 -10.25389 -10.24584  -1.15020  -1.13469
 Alpha  occ. eigenvalues --   -1.13443  -1.12994  -1.11411  -0.93392  -0.92528
 Alpha  occ. eigenvalues --   -0.89627  -0.84153  -0.83083  -0.82369  -0.81573
 Alpha  occ. eigenvalues --   -0.78460  -0.76386  -0.74866  -0.72831  -0.69571
 Alpha  occ. eigenvalues --   -0.69136  -0.66784  -0.65807  -0.63259  -0.61060
 Alpha  occ. eigenvalues --   -0.60784  -0.59136  -0.57229  -0.56484  -0.54903
 Alpha  occ. eigenvalues --   -0.54272  -0.53952  -0.53386  -0.52630  -0.52358
 Alpha  occ. eigenvalues --   -0.50781  -0.50342  -0.50147  -0.49020  -0.48471
 Alpha  occ. eigenvalues --   -0.48140  -0.47691  -0.47233  -0.46813  -0.45629
 Alpha  occ. eigenvalues --   -0.45090  -0.44825  -0.43305  -0.42606  -0.42191
 Alpha  occ. eigenvalues --   -0.41175  -0.40964  -0.40341  -0.39288  -0.38809
 Alpha  occ. eigenvalues --   -0.37790  -0.37555  -0.36150  -0.33897  -0.33114
 Alpha  occ. eigenvalues --   -0.30287  -0.26996  -0.26457  -0.25173
 Alpha virt. eigenvalues --    0.04814   0.05707   0.06335   0.07200   0.11515
 Alpha virt. eigenvalues --    0.12042   0.13681   0.15152   0.16329   0.17321
 Alpha virt. eigenvalues --    0.17718   0.18429   0.18893   0.19967   0.20069
 Alpha virt. eigenvalues --    0.20356   0.20569   0.21266   0.21517   0.21977
 Alpha virt. eigenvalues --    0.22437   0.23019   0.23525   0.24105   0.24441
 Alpha virt. eigenvalues --    0.24599   0.24739   0.25907   0.26177   0.27288
 Alpha virt. eigenvalues --    0.28740   0.29158   0.30531   0.30538   0.32083
 Alpha virt. eigenvalues --    0.33292   0.36080   0.36665   0.37644   0.38031
 Alpha virt. eigenvalues --    0.39740   0.40533   0.40988   0.42822   0.44209
 Alpha virt. eigenvalues --    0.47529   0.50292   0.53360   0.54134   0.54565
 Alpha virt. eigenvalues --    0.56006   0.56717   0.57554   0.57963   0.58420
 Alpha virt. eigenvalues --    0.59117   0.59445   0.59919   0.60372   0.60717
 Alpha virt. eigenvalues --    0.60920   0.61649   0.62889   0.63496   0.64582
 Alpha virt. eigenvalues --    0.65174   0.65694   0.65876   0.66203   0.67365
 Alpha virt. eigenvalues --    0.68293   0.69112   0.69824   0.70285   0.71078
 Alpha virt. eigenvalues --    0.71566   0.72250   0.72730   0.73376   0.74435
 Alpha virt. eigenvalues --    0.75100   0.75418   0.77172   0.78657   0.79957
 Alpha virt. eigenvalues --    0.80824   0.82088   0.82448   0.82734   0.83997
 Alpha virt. eigenvalues --    0.86476   0.86975   0.88215   0.89263   0.89863
 Alpha virt. eigenvalues --    0.90089   0.90859   0.91696   0.92396   0.92666
 Alpha virt. eigenvalues --    0.93443   0.93565   0.94087   0.94501   0.95249
 Alpha virt. eigenvalues --    0.95747   0.96089   0.96678   0.97238   0.98418
 Alpha virt. eigenvalues --    0.99033   0.99542   1.00062   1.01603   1.02351
 Alpha virt. eigenvalues --    1.03099   1.03366   1.03989   1.04838   1.05253
 Alpha virt. eigenvalues --    1.05648   1.06226   1.07707   1.08941   1.09649
 Alpha virt. eigenvalues --    1.10054   1.12276   1.12524   1.14687   1.16260
 Alpha virt. eigenvalues --    1.17869   1.18397   1.22175   1.22396   1.24425
 Alpha virt. eigenvalues --    1.25524   1.26448   1.27751   1.28064   1.28608
 Alpha virt. eigenvalues --    1.30012   1.30389   1.32441   1.32817   1.33423
 Alpha virt. eigenvalues --    1.34850   1.37719   1.39560   1.39985   1.43112
 Alpha virt. eigenvalues --    1.43961   1.45166   1.45336   1.46193   1.48456
 Alpha virt. eigenvalues --    1.49215   1.50426   1.51470   1.52709   1.53125
 Alpha virt. eigenvalues --    1.54016   1.54640   1.56299   1.57644   1.58981
 Alpha virt. eigenvalues --    1.59177   1.64144   1.65614   1.68265   1.70380
 Alpha virt. eigenvalues --    1.72212   1.73806   1.76024   1.78205   1.80193
 Alpha virt. eigenvalues --    1.80957   1.81688   1.83649   1.83824   1.85108
 Alpha virt. eigenvalues --    1.85521   1.86228   1.87653   1.89538   1.90308
 Alpha virt. eigenvalues --    1.91088   1.92589   1.93401   1.93992   1.94966
 Alpha virt. eigenvalues --    1.96257   1.96469   1.98139   1.99606   2.00595
 Alpha virt. eigenvalues --    2.01002   2.02015   2.03196   2.04549   2.05242
 Alpha virt. eigenvalues --    2.06126   2.06390   2.07180   2.08594   2.08884
 Alpha virt. eigenvalues --    2.11018   2.11277   2.12898   2.13524   2.14442
 Alpha virt. eigenvalues --    2.15186   2.16987   2.18610   2.20396   2.21763
 Alpha virt. eigenvalues --    2.22665   2.23095   2.24371   2.24505   2.28234
 Alpha virt. eigenvalues --    2.28763   2.30655   2.31361   2.34342   2.34810
 Alpha virt. eigenvalues --    2.35759   2.36526   2.37425   2.39162   2.40897
 Alpha virt. eigenvalues --    2.41273   2.42210   2.42757   2.44193   2.46324
 Alpha virt. eigenvalues --    2.47255   2.48118   2.48484   2.49778   2.51135
 Alpha virt. eigenvalues --    2.53615   2.53811   2.56448   2.57140   2.59498
 Alpha virt. eigenvalues --    2.61494   2.65011   2.65153   2.67345   2.68509
 Alpha virt. eigenvalues --    2.68912   2.71771   2.72734   2.74574   2.75420
 Alpha virt. eigenvalues --    2.78480   2.80039   2.81811   2.83141   2.85586
 Alpha virt. eigenvalues --    2.86120   2.86551   2.87362   2.91471   2.92682
 Alpha virt. eigenvalues --    2.97263   2.97971   2.98944   3.02790   3.05000
 Alpha virt. eigenvalues --    3.08467   3.13488   3.16017   3.19560   3.19836
 Alpha virt. eigenvalues --    3.38452   3.49531   3.54307   3.96830   4.01124
 Alpha virt. eigenvalues --    4.10805   4.15191   4.17827   4.20396   4.21495
 Alpha virt. eigenvalues --    4.26185   4.27124   4.30783   4.31995   4.33408
 Alpha virt. eigenvalues --    4.39463   4.41795   4.45913   4.50498   4.56180
 Alpha virt. eigenvalues --    4.59014   4.64601   4.67372   4.80627   4.83275
 Alpha virt. eigenvalues --    5.14207
          Condensed to atoms (all electrons):
               1          2          3          4          5          6
     1  O    8.224022   0.306125  -0.058610  -0.015801   0.000705   0.005229
     2  C    0.306125   4.616258   0.407334  -0.064483  -0.002899  -0.006041
     3  C   -0.058610   0.407334   5.128348   0.220353  -0.041872   0.342145
     4  O   -0.015801  -0.064483   0.220353   8.291176   0.239109  -0.058098
     5  C    0.000705  -0.002899  -0.041872   0.239109   4.914902  -0.005112
     6  C    0.005229  -0.006041   0.342145  -0.058098  -0.005112   4.877565
     7  O   -0.000009   0.003761  -0.067714  -0.000434  -0.004618   0.271898
     8  C   -0.000001  -0.000013  -0.007056  -0.006288   0.000588  -0.035726
     9  C    0.000178  -0.032186  -0.063254   0.004379   0.000037   0.440999
    10  C    0.002347   0.012546  -0.053779  -0.000053   0.000000   0.034269
    11  O   -0.000009   0.003167   0.000169   0.000000  -0.000000   0.004401
    12  C    0.000000  -0.000146   0.000003  -0.000000   0.000000   0.000321
    13  C    0.000000   0.000038  -0.000092   0.000000  -0.000000   0.004674
    14  C   -0.000000  -0.000005   0.000004   0.000000   0.000000  -0.000501
    15  C   -0.000000   0.000000  -0.000000   0.000000  -0.000000   0.000001
    16  C    0.000000  -0.000000   0.000000   0.000000   0.000000   0.000000
    17  C    0.000000   0.000000   0.000000   0.000000   0.000000   0.000000
    18  C   -0.000000   0.000000  -0.000000  -0.000000  -0.000000  -0.000000
    19  O    0.000000  -0.000000  -0.000000   0.000000   0.000000  -0.000000
    20  C    0.000000   0.000000  -0.000000  -0.000000  -0.000000   0.000000
    21  C   -0.000000   0.000000  -0.000000   0.000000   0.000000  -0.000000
    22  C    0.000001  -0.000588   0.009188  -0.000039   0.000003  -0.054941
    23  C   -0.048624   0.499166  -0.048253   0.004418  -0.000098  -0.050879
    24  H    0.243319  -0.039195  -0.013904   0.034988  -0.001848   0.001717
    25  H   -0.000015  -0.000253  -0.007906  -0.034806   0.374105   0.002606
    26  H    0.000521   0.003152   0.002192  -0.037371   0.368752   0.000359
    27  H   -0.000020   0.000006   0.004122  -0.031607   0.380751  -0.000021
    28  H   -0.000000   0.000006  -0.000056   0.000100   0.000054   0.003648
    29  H    0.000000   0.000019   0.000137   0.000222  -0.000005   0.000195
    30  H    0.000007  -0.000330   0.003419   0.012283  -0.001153  -0.008354
    31  H   -0.000000  -0.000008  -0.000003   0.000000   0.000000  -0.000348
    32  H   -0.000000   0.000002  -0.000000   0.000000   0.000000   0.000022
    33  H    0.000000  -0.000000   0.000002  -0.000000  -0.000000  -0.000089
    34  H    0.000000  -0.000033  -0.000008  -0.000000  -0.000000  -0.000316
    35  H   -0.000000   0.000000  -0.000000  -0.000000   0.000000  -0.000009
    36  H   -0.000000   0.000000   0.000000  -0.000000   0.000000  -0.000002
    37  H    0.000000  -0.000000  -0.000000  -0.000000  -0.000000   0.000000
    38  H    0.000000  -0.000000   0.000000   0.000000   0.000000  -0.000000
    39  H    0.000000  -0.000000   0.000000   0.000000   0.000000  -0.000000
    40  H    0.000000  -0.000000   0.000000  -0.000000  -0.000000  -0.000000
    41  H   -0.000000   0.000036  -0.000215   0.000000  -0.000001  -0.004797
    42  H   -0.000000   0.000003   0.000286  -0.000001   0.000001  -0.007008
    43  H   -0.001524  -0.032319   0.006257  -0.000043   0.000002  -0.000352
               7          8          9         10         11         12
     1  O   -0.000009  -0.000001   0.000178   0.002347  -0.000009   0.000000
     2  C    0.003761  -0.000013  -0.032186   0.012546   0.003167  -0.000146
     3  C   -0.067714  -0.007056  -0.063254  -0.053779   0.000169   0.000003
     4  O   -0.000434  -0.006288   0.004379  -0.000053   0.000000  -0.000000
     5  C   -0.004618   0.000588   0.000037   0.000000  -0.000000   0.000000
     6  C    0.271898  -0.035726   0.440999   0.034269   0.004401   0.000321
     7  O    8.247488   0.244898  -0.080589   0.003137  -0.000008  -0.000014
     8  C    0.244898   4.903296  -0.000573   0.000039   0.000001   0.000001
     9  C   -0.080589  -0.000573   5.106237   0.454959  -0.047755  -0.018236
    10  C    0.003137   0.000039   0.454959   4.602285   0.252292  -0.034181
    11  O   -0.000008   0.000001  -0.047755   0.252292   8.262844   0.240065
    12  C   -0.000014   0.000001  -0.018236  -0.034181   0.240065   4.898369
    13  C    0.000540  -0.000013  -0.022595  -0.009647  -0.043174   0.341312
    14  C   -0.000015  -0.000007  -0.005773  -0.001512   0.004540  -0.048144
    15  C   -0.000000   0.000000   0.000197   0.000163  -0.003488  -0.003795
    16  C   -0.000000  -0.000000  -0.000035  -0.000021   0.000241  -0.001231
    17  C    0.000000   0.000000  -0.000000  -0.000002   0.000075  -0.000252
    18  C   -0.000000   0.000000   0.000000   0.000000   0.000000   0.000006
    19  O    0.000000   0.000000   0.000000   0.000000  -0.000000  -0.000000
    20  C    0.000000  -0.000000   0.000000  -0.000000  -0.000000   0.000024
    21  C    0.000000   0.000000  -0.000001   0.000004  -0.000024  -0.000307
    22  C    0.001046  -0.000617   0.325965  -0.064713  -0.016516  -0.041013
    23  C    0.000011  -0.000015  -0.064019   0.501907  -0.055572   0.003454
    24  H   -0.000007   0.000006  -0.000118  -0.000068   0.000001  -0.000000
    25  H    0.011181  -0.000745  -0.000300  -0.000011   0.000000   0.000000
    26  H    0.000167  -0.000016  -0.000050   0.000002   0.000000  -0.000000
    27  H    0.000063   0.000043   0.000005  -0.000000   0.000000  -0.000000
    28  H   -0.032383   0.383312   0.000100   0.000005  -0.000000  -0.000000
    29  H   -0.038604   0.368188   0.003989  -0.000155   0.000000   0.000000
    30  H   -0.035311   0.370176  -0.001016   0.000005  -0.000000  -0.000000
    31  H   -0.000000  -0.000000   0.001445   0.000356  -0.039416   0.372536
    32  H    0.000000   0.000000   0.000315   0.002674  -0.034614   0.380118
    33  H   -0.000002  -0.000000   0.004069   0.000575   0.002895  -0.037012
    34  H   -0.000002  -0.000001   0.004477   0.003916   0.003059  -0.009124
    35  H   -0.000006  -0.000003  -0.000425  -0.000104   0.000127   0.005350
    36  H    0.000000   0.000000  -0.000015   0.000102   0.005353  -0.001097
    37  H   -0.000000  -0.000000   0.000000  -0.000000  -0.000001   0.000001
    38  H   -0.000000  -0.000000  -0.000000   0.000000  -0.000000  -0.000000
    39  H    0.000000  -0.000000  -0.000000   0.000000   0.000000  -0.000000
    40  H   -0.000000  -0.000000  -0.000000  -0.000000  -0.000000   0.000053
    41  H    0.001190  -0.000144  -0.028426  -0.001158   0.000206  -0.003409
    42  H    0.005356   0.000987  -0.033791   0.001845  -0.000034   0.005356
    43  H    0.000001  -0.000000   0.006291  -0.032658  -0.000412  -0.000037
              13         14         15         16         17         18
     1  O    0.000000  -0.000000  -0.000000   0.000000   0.000000  -0.000000
     2  C    0.000038  -0.000005   0.000000  -0.000000   0.000000   0.000000
     3  C   -0.000092   0.000004  -0.000000   0.000000   0.000000  -0.000000
     4  O    0.000000   0.000000   0.000000   0.000000   0.000000  -0.000000
     5  C   -0.000000   0.000000  -0.000000   0.000000   0.000000  -0.000000
     6  C    0.004674  -0.000501   0.000001   0.000000   0.000000  -0.000000
     7  O    0.000540  -0.000015  -0.000000  -0.000000   0.000000  -0.000000
     8  C   -0.000013  -0.000007   0.000000  -0.000000   0.000000   0.000000
     9  C   -0.022595  -0.005773   0.000197  -0.000035  -0.000000   0.000000
    10  C   -0.009647  -0.001512   0.000163  -0.000021  -0.000002   0.000000
    11  O   -0.043174   0.004540  -0.003488   0.000241   0.000075   0.000000
    12  C    0.341312  -0.048144  -0.003795  -0.001231  -0.000252   0.000006
    13  C    5.093984   0.342097  -0.035134  -0.005970  -0.000147   0.000028
    14  C    0.342097   5.175554   0.352244  -0.051261   0.006424   0.000294
    15  C   -0.035134   0.352244   4.662424   0.544508  -0.031866  -0.030985
    16  C   -0.005970  -0.051261   0.544508   4.960753   0.511753  -0.018121
    17  C   -0.000147   0.006424  -0.031866   0.511753   4.960846   0.551796
    18  C    0.000028   0.000294  -0.030985  -0.018121   0.551796   4.468754
    19  O    0.000000   0.000000   0.000224   0.002722  -0.051425   0.289107
    20  C   -0.000004   0.006431  -0.029426  -0.044337  -0.066458   0.512853
    21  C   -0.002353  -0.058834   0.560843  -0.035582  -0.041384  -0.008607
    22  C    0.325347  -0.045841   0.004026  -0.000029   0.000001  -0.000000
    23  C   -0.000241  -0.000110   0.000007  -0.000003  -0.000000  -0.000000
    24  H    0.000000  -0.000000   0.000000  -0.000000  -0.000000   0.000000
    25  H   -0.000000   0.000000   0.000000   0.000000  -0.000000   0.000000
    26  H    0.000000  -0.000000   0.000000  -0.000000  -0.000000   0.000000
    27  H    0.000000  -0.000000   0.000000  -0.000000  -0.000000   0.000000
    28  H   -0.000001   0.000000  -0.000000   0.000000   0.000000  -0.000000
    29  H   -0.000053   0.000030   0.000000  -0.000000  -0.000000   0.000000
    30  H    0.000002  -0.000000  -0.000000  -0.000000  -0.000000  -0.000000
    31  H   -0.051573   0.006303  -0.000236   0.000141   0.000005   0.000000
    32  H   -0.031524  -0.009406   0.008523   0.004654   0.000211  -0.000056
    33  H    0.364314  -0.040197  -0.003446   0.000121   0.000013  -0.000010
    34  H   -0.034789   0.367655  -0.030154  -0.004052   0.000187   0.000003
    35  H   -0.038360   0.363504  -0.030629   0.003733  -0.000188   0.000015
    36  H   -0.000230  -0.007025  -0.042602   0.359055  -0.039551   0.004048
    37  H   -0.000000  -0.000133   0.003574  -0.037307   0.352365  -0.035072
    38  H    0.000000  -0.000000  -0.000030  -0.000167   0.006049  -0.032416
    39  H   -0.000001  -0.000153   0.003246   0.000543   0.004836  -0.044344
    40  H    0.000299  -0.008402  -0.041622   0.005892   0.000406   0.003114
    41  H   -0.029906   0.004596  -0.000090  -0.000001  -0.000000   0.000000
    42  H   -0.036602  -0.005303   0.000169   0.000002  -0.000000   0.000000
    43  H    0.000033   0.000002   0.000000  -0.000003  -0.000000   0.000000
              19         20         21         22         23         24
     1  O    0.000000   0.000000  -0.000000   0.000001  -0.048624   0.243319
     2  C   -0.000000   0.000000   0.000000  -0.000588   0.499166  -0.039195
     3  C   -0.000000  -0.000000  -0.000000   0.009188  -0.048253  -0.013904
     4  O    0.000000  -0.000000   0.000000  -0.000039   0.004418   0.034988
     5  C    0.000000  -0.000000   0.000000   0.000003  -0.000098  -0.001848
     6  C   -0.000000   0.000000  -0.000000  -0.054941  -0.050879   0.001717
     7  O    0.000000   0.000000   0.000000   0.001046   0.000011  -0.000007
     8  C    0.000000  -0.000000   0.000000  -0.000617  -0.000015   0.000006
     9  C    0.000000   0.000000  -0.000001   0.325965  -0.064019  -0.000118
    10  C    0.000000  -0.000000   0.000004  -0.064713   0.501907  -0.000068
    11  O   -0.000000  -0.000000  -0.000024  -0.016516  -0.055572   0.000001
    12  C   -0.000000   0.000024  -0.000307  -0.041013   0.003454  -0.000000
    13  C    0.000000  -0.000004  -0.002353   0.325347  -0.000241   0.000000
    14  C    0.000000   0.006431  -0.058834  -0.045841  -0.000110  -0.000000
    15  C    0.000224  -0.029426   0.560843   0.004026   0.000007   0.000000
    16  C    0.002722  -0.044337  -0.035582  -0.000029  -0.000003  -0.000000
    17  C   -0.051425  -0.066458  -0.041384   0.000001  -0.000000  -0.000000
    18  C    0.289107   0.512853  -0.008607  -0.000000  -0.000000   0.000000
    19  O    8.220428  -0.060200   0.004321   0.000000   0.000000   0.000000
    20  C   -0.060200   5.089006   0.478507   0.000002   0.000000  -0.000000
    21  C    0.004321   0.478507   4.960027   0.000110   0.000000  -0.000000
    22  C    0.000000   0.000002   0.000110   5.177558   0.008390   0.000000
    23  C    0.000000   0.000000   0.000000   0.008390   5.153455   0.005862
    24  H    0.000000  -0.000000  -0.000000   0.000000   0.005862   0.348692
    25  H    0.000000   0.000000  -0.000000   0.000013   0.000042   0.000313
    26  H    0.000000  -0.000000   0.000000  -0.000001  -0.000297  -0.000804
    27  H    0.000000  -0.000000   0.000000  -0.000000   0.000004  -0.000172
    28  H    0.000000  -0.000000   0.000000  -0.000101  -0.000000  -0.000000
    29  H    0.000000  -0.000000  -0.000000   0.000095  -0.000018  -0.000001
    30  H    0.000000   0.000000   0.000000   0.000131  -0.000002   0.000003
    31  H   -0.000000  -0.000001  -0.000030  -0.005224   0.000332  -0.000000
    32  H    0.000000  -0.000074   0.000537   0.004421  -0.000182   0.000000
    33  H    0.000000  -0.000098   0.003417  -0.034477   0.000005   0.000000
    34  H   -0.000000  -0.000179   0.003651  -0.004591  -0.000005   0.000000
    35  H   -0.000000   0.000122  -0.005417  -0.004467  -0.000002  -0.000000
    36  H   -0.000052   0.000347   0.005631  -0.000021  -0.000037  -0.000000
    37  H   -0.001337   0.006437   0.000182  -0.000000   0.000000   0.000000
    38  H    0.247970  -0.004318   0.000590  -0.000000   0.000000   0.000000
    39  H   -0.005361   0.349394  -0.030960  -0.000000  -0.000000  -0.000000
    40  H   -0.000051  -0.039420   0.356093  -0.000060  -0.000000   0.000000
    41  H   -0.000000  -0.000000  -0.000004   0.365626  -0.000187   0.000000
    42  H    0.000000  -0.000000  -0.000001   0.373883  -0.000097   0.000000
    43  H   -0.000000  -0.000000   0.000000  -0.000122   0.342773  -0.000262
              25         26         27         28         29         30
     1  O   -0.000015   0.000521  -0.000020  -0.000000   0.000000   0.000007
     2  C   -0.000253   0.003152   0.000006   0.000006   0.000019  -0.000330
     3  C   -0.007906   0.002192   0.004122  -0.000056   0.000137   0.003419
     4  O   -0.034806  -0.037371  -0.031607   0.000100   0.000222   0.012283
     5  C    0.374105   0.368752   0.380751   0.000054  -0.000005  -0.001153
     6  C    0.002606   0.000359  -0.000021   0.003648   0.000195  -0.008354
     7  O    0.011181   0.000167   0.000063  -0.032383  -0.038604  -0.035311
     8  C   -0.000745  -0.000016   0.000043   0.383312   0.368188   0.370176
     9  C   -0.000300  -0.000050   0.000005   0.000100   0.003989  -0.001016
    10  C   -0.000011   0.000002  -0.000000   0.000005  -0.000155   0.000005
    11  O    0.000000   0.000000   0.000000  -0.000000   0.000000  -0.000000
    12  C    0.000000  -0.000000  -0.000000  -0.000000   0.000000  -0.000000
    13  C   -0.000000   0.000000   0.000000  -0.000001  -0.000053   0.000002
    14  C    0.000000  -0.000000  -0.000000   0.000000   0.000030  -0.000000
    15  C    0.000000   0.000000   0.000000  -0.000000   0.000000  -0.000000
    16  C    0.000000  -0.000000  -0.000000   0.000000  -0.000000  -0.000000
    17  C   -0.000000  -0.000000  -0.000000   0.000000  -0.000000  -0.000000
    18  C    0.000000   0.000000   0.000000  -0.000000   0.000000  -0.000000
    19  O    0.000000   0.000000   0.000000   0.000000   0.000000   0.000000
    20  C    0.000000  -0.000000  -0.000000  -0.000000  -0.000000   0.000000
    21  C   -0.000000   0.000000   0.000000   0.000000  -0.000000   0.000000
    22  C    0.000013  -0.000001  -0.000000  -0.000101   0.000095   0.000131
    23  C    0.000042  -0.000297   0.000004  -0.000000  -0.000018  -0.000002
    24  H    0.000313  -0.000804  -0.000172  -0.000000  -0.000001   0.000003
    25  H    0.552286  -0.040180  -0.029913  -0.000179   0.000156  -0.001484
    26  H   -0.040180   0.580067  -0.030692   0.000002  -0.000001   0.000174
    27  H   -0.029913  -0.030692   0.545775  -0.000017   0.000002  -0.000143
    28  H   -0.000179   0.000002  -0.000017   0.546163  -0.031152  -0.030555
    29  H    0.000156  -0.000001   0.000002  -0.031152   0.591295  -0.042598
    30  H   -0.001484   0.000174  -0.000143  -0.030555  -0.042598   0.563405
    31  H    0.000000  -0.000000  -0.000000   0.000000  -0.000000  -0.000000
    32  H   -0.000000  -0.000000  -0.000000  -0.000000  -0.000000  -0.000000
    33  H    0.000000  -0.000000  -0.000000   0.000000   0.000000   0.000000
    34  H    0.000000   0.000000   0.000000  -0.000000   0.000023   0.000000
    35  H    0.000000  -0.000000  -0.000000  -0.000000   0.000032  -0.000000
    36  H   -0.000000  -0.000000  -0.000000   0.000000  -0.000000  -0.000000
    37  H    0.000000   0.000000   0.000000   0.000000   0.000000  -0.000000
    38  H    0.000000   0.000000   0.000000  -0.000000   0.000000   0.000000
    39  H    0.000000  -0.000000   0.000000   0.000000   0.000000  -0.000000
    40  H    0.000000   0.000000   0.000000   0.000000   0.000000  -0.000000
    41  H    0.000002   0.000000   0.000000   0.000011   0.000041  -0.000000
    42  H   -0.000002  -0.000000  -0.000000  -0.000037  -0.000378   0.000052
    43  H   -0.000000   0.000003  -0.000000   0.000000   0.000000   0.000000
              31         32         33         34         35         36
     1  O   -0.000000  -0.000000   0.000000   0.000000  -0.000000  -0.000000
     2  C   -0.000008   0.000002  -0.000000  -0.000033   0.000000   0.000000
     3  C   -0.000003  -0.000000   0.000002  -0.000008  -0.000000   0.000000
     4  O    0.000000   0.000000  -0.000000  -0.000000  -0.000000  -0.000000
     5  C    0.000000   0.000000  -0.000000  -0.000000   0.000000   0.000000
     6  C   -0.000348   0.000022  -0.000089  -0.000316  -0.000009  -0.000002
     7  O   -0.000000   0.000000  -0.000002  -0.000002  -0.000006   0.000000
     8  C   -0.000000   0.000000  -0.000000  -0.000001  -0.000003   0.000000
     9  C    0.001445   0.000315   0.004069   0.004477  -0.000425  -0.000015
    10  C    0.000356   0.002674   0.000575   0.003916  -0.000104   0.000102
    11  O   -0.039416  -0.034614   0.002895   0.003059   0.000127   0.005353
    12  C    0.372536   0.380118  -0.037012  -0.009124   0.005350  -0.001097
    13  C   -0.051573  -0.031524   0.364314  -0.034789  -0.038360  -0.000230
    14  C    0.006303  -0.009406  -0.040197   0.367655   0.363504  -0.007025
    15  C   -0.000236   0.008523  -0.003446  -0.030154  -0.030629  -0.042602
    16  C    0.000141   0.004654   0.000121  -0.004052   0.003733   0.359055
    17  C    0.000005   0.000211   0.000013   0.000187  -0.000188  -0.039551
    18  C    0.000000  -0.000056  -0.000010   0.000003   0.000015   0.004048
    19  O   -0.000000   0.000000   0.000000  -0.000000  -0.000000  -0.000052
    20  C   -0.000001  -0.000074  -0.000098  -0.000179   0.000122   0.000347
    21  C   -0.000030   0.000537   0.003417   0.003651  -0.005417   0.005631
    22  C   -0.005224   0.004421  -0.034477  -0.004591  -0.004467  -0.000021
    23  C    0.000332  -0.000182   0.000005  -0.000005  -0.000002  -0.000037
    24  H   -0.000000   0.000000   0.000000   0.000000  -0.000000  -0.000000
    25  H    0.000000  -0.000000   0.000000   0.000000   0.000000  -0.000000
    26  H   -0.000000  -0.000000  -0.000000   0.000000  -0.000000  -0.000000
    27  H   -0.000000  -0.000000  -0.000000   0.000000  -0.000000  -0.000000
    28  H    0.000000  -0.000000   0.000000  -0.000000  -0.000000   0.000000
    29  H   -0.000000  -0.000000   0.000000   0.000023   0.000032  -0.000000
    30  H   -0.000000  -0.000000   0.000000   0.000000  -0.000000  -0.000000
    31  H    0.607654  -0.036963  -0.000715   0.000076  -0.000099   0.000113
    32  H   -0.036963   0.544924  -0.000464   0.000113   0.000018  -0.001060
    33  H   -0.000715  -0.000464   0.612569   0.005539  -0.004001   0.000004
    34  H    0.000076   0.000113   0.005539   0.559859  -0.032492   0.004212
    35  H   -0.000099   0.000018  -0.004001  -0.032492   0.592658   0.000075
    36  H    0.000113  -0.001060   0.000004   0.004212   0.000075   0.565028
    37  H   -0.000000   0.000003   0.000000  -0.000005   0.000002  -0.005314
    38  H   -0.000000   0.000000   0.000000   0.000000   0.000000   0.000005
    39  H    0.000000  -0.000000   0.000003   0.000002  -0.000007   0.000013
    40  H    0.000001  -0.000006   0.000737   0.000049   0.004687  -0.000170
    41  H    0.002089  -0.000138  -0.005425   0.000060  -0.000024   0.000000
    42  H    0.000078  -0.000124  -0.000673  -0.000253   0.005371   0.000002
    43  H    0.000020  -0.000025  -0.000000   0.000004   0.000000   0.000022
              37         38         39         40         41         42
     1  O    0.000000   0.000000   0.000000   0.000000  -0.000000  -0.000000
     2  C   -0.000000  -0.000000  -0.000000  -0.000000   0.000036   0.000003
     3  C   -0.000000   0.000000   0.000000   0.000000  -0.000215   0.000286
     4  O   -0.000000   0.000000   0.000000  -0.000000   0.000000  -0.000001
     5  C   -0.000000   0.000000   0.000000  -0.000000  -0.000001   0.000001
     6  C    0.000000  -0.000000  -0.000000  -0.000000  -0.004797  -0.007008
     7  O   -0.000000  -0.000000   0.000000  -0.000000   0.001190   0.005356
     8  C   -0.000000  -0.000000  -0.000000  -0.000000  -0.000144   0.000987
     9  C    0.000000  -0.000000  -0.000000  -0.000000  -0.028426  -0.033791
    10  C   -0.000000   0.000000   0.000000  -0.000000  -0.001158   0.001845
    11  O   -0.000001  -0.000000   0.000000  -0.000000   0.000206  -0.000034
    12  C    0.000001  -0.000000  -0.000000   0.000053  -0.003409   0.005356
    13  C   -0.000000   0.000000  -0.000001   0.000299  -0.029906  -0.036602
    14  C   -0.000133  -0.000000  -0.000153  -0.008402   0.004596  -0.005303
    15  C    0.003574  -0.000030   0.003246  -0.041622  -0.000090   0.000169
    16  C   -0.037307  -0.000167   0.000543   0.005892  -0.000001   0.000002
    17  C    0.352365   0.006049   0.004836   0.000406  -0.000000  -0.000000
    18  C   -0.035072  -0.032416  -0.044344   0.003114   0.000000   0.000000
    19  O   -0.001337   0.247970  -0.005361  -0.000051  -0.000000   0.000000
    20  C    0.006437  -0.004318   0.349394  -0.039420  -0.000000  -0.000000
    21  C    0.000182   0.000590  -0.030960   0.356093  -0.000004  -0.000001
    22  C   -0.000000  -0.000000  -0.000000  -0.000060   0.365626   0.373883
    23  C    0.000000   0.000000  -0.000000  -0.000000  -0.000187  -0.000097
    24  H    0.000000   0.000000  -0.000000   0.000000   0.000000   0.000000
    25  H    0.000000   0.000000   0.000000   0.000000   0.000002  -0.000002
    26  H    0.000000   0.000000  -0.000000   0.000000   0.000000  -0.000000
    27  H    0.000000   0.000000   0.000000   0.000000   0.000000  -0.000000
    28  H    0.000000  -0.000000   0.000000   0.000000   0.000011  -0.000037
    29  H    0.000000   0.000000   0.000000   0.000000   0.000041  -0.000378
    30  H   -0.000000   0.000000  -0.000000  -0.000000  -0.000000   0.000052
    31  H   -0.000000  -0.000000   0.000000   0.000001   0.002089   0.000078
    32  H    0.000003   0.000000  -0.000000  -0.000006  -0.000138  -0.000124
    33  H    0.000000   0.000000   0.000003   0.000737  -0.005425  -0.000673
    34  H   -0.000005   0.000000   0.000002   0.000049   0.000060  -0.000253
    35  H    0.000002   0.000000  -0.000007   0.004687  -0.000024   0.005371
    36  H   -0.005314   0.000005   0.000013  -0.000170   0.000000   0.000002
    37  H    0.570138  -0.000294  -0.000160   0.000015   0.000000  -0.000000
    38  H   -0.000294   0.366431   0.006586  -0.000011   0.000000  -0.000000
    39  H   -0.000160   0.006586   0.599680  -0.005454   0.000000  -0.000000
    40  H    0.000015  -0.000011  -0.005454   0.595241   0.000002   0.000003
    41  H    0.000000   0.000000   0.000000   0.000002   0.578517  -0.034736
    42  H   -0.000000  -0.000000  -0.000000   0.000003  -0.034736   0.574126
    43  H   -0.000000   0.000000   0.000000   0.000000   0.000002   0.000002
              43
     1  O   -0.001524
     2  C   -0.032319
     3  C    0.006257
     4  O   -0.000043
     5  C    0.000002
     6  C   -0.000352
     7  O    0.000001
     8  C   -0.000000
     9  C    0.006291
    10  C   -0.032658
    11  O   -0.000412
    12  C   -0.000037
    13  C    0.000033
    14  C    0.000002
    15  C    0.000000
    16  C   -0.000003
    17  C   -0.000000
    18  C    0.000000
    19  O   -0.000000
    20  C   -0.000000
    21  C    0.000000
    22  C   -0.000122
    23  C    0.342773
    24  H   -0.000262
    25  H   -0.000000
    26  H    0.000003
    27  H   -0.000000
    28  H    0.000000
    29  H    0.000000
    30  H    0.000000
    31  H    0.000020
    32  H   -0.000025
    33  H   -0.000000
    34  H    0.000004
    35  H    0.000000
    36  H    0.000022
    37  H   -0.000000
    38  H    0.000000
    39  H    0.000000
    40  H    0.000000
    41  H    0.000002
    42  H    0.000002
    43  H    0.560752
 Mulliken charges:
               1
     1  O   -0.657844
     2  C    0.326880
     3  C    0.238762
     4  O   -0.558005
     5  C   -0.221403
     6  C    0.242545
     7  O   -0.531022
     8  C   -0.220316
     9  C    0.045513
    10  C    0.324633
    11  O   -0.538411
    12  C   -0.048974
    13  C   -0.130258
    14  C   -0.347057
    15  C    0.143351
    16  C   -0.195998
    17  C   -0.163695
    18  C    0.339593
    19  O   -0.646348
    20  C   -0.198606
    21  C   -0.190410
    22  C   -0.322444
    23  C   -0.251186
    24  H    0.421479
    25  H    0.175090
    26  H    0.154019
    27  H    0.161814
    28  H    0.161081
    29  H    0.148538
    30  H    0.171289
    31  H    0.143468
    32  H    0.168100
    33  H    0.132348
    34  H    0.163122
    35  H    0.140539
    36  H    0.153164
    37  H    0.146906
    38  H    0.409605
    39  H    0.122136
    40  H    0.128608
    41  H    0.156283
    42  H    0.151516
    43  H    0.151593
 Sum of Mulliken charges =  -0.00000
 Mulliken charges with hydrogens summed into heavy atoms:
               1
     1  O   -0.236364
     2  C    0.326880
     3  C    0.238762
     4  O   -0.558005
     5  C    0.269520
     6  C    0.242545
     7  O   -0.531022
     8  C    0.260593
     9  C    0.045513
    10  C    0.324633
    11  O   -0.538411
    12  C    0.262594
    13  C    0.002091
    14  C   -0.043397
    15  C    0.143351
    16  C   -0.042834
    17  C   -0.016789
    18  C    0.339593
    19  O   -0.236743
    20  C   -0.076470
    21  C   -0.061802
    22  C   -0.014645
    23  C   -0.099593
 Electronic spatial extent (au):  <R**2>=          10324.8888
 Charge=              0.0000 electrons
 Dipole moment (field-independent basis, Debye):
    X=              0.4194    Y=             -3.9955    Z=              0.5452  Tot=              4.0543
 Quadrupole moment (field-independent basis, Debye-Ang):
   XX=           -108.1330   YY=           -134.1909   ZZ=           -133.9645
   XY=              5.4071   XZ=             -3.8786   YZ=              1.7604
 Traceless Quadrupole moment (field-independent basis, Debye-Ang):
   XX=             17.2965   YY=             -8.7614   ZZ=             -8.5351
   XY=              5.4071   XZ=             -3.8786   YZ=              1.7604
 Octapole moment (field-independent basis, Debye-Ang**2):
  XXX=             29.7478  YYY=            -19.8676  ZZZ=              5.2529  XYY=             -5.4753
  XXY=            -92.0724  XXZ=             14.7610  XZZ=             20.6078  YZZ=             -1.6761
  YYZ=            -10.6231  XYZ=              9.5073
 Hexadecapole moment (field-independent basis, Debye-Ang**3):
 XXXX=          -8972.0586 YYYY=          -1631.4679 ZZZZ=           -584.2529 XXXY=            574.0840
 XXXZ=            -97.5684 YYYX=           -101.1907 YYYZ=             21.8851 ZZZX=            -46.8510
 ZZZY=             -3.8442 XXYY=          -2131.1197 XXZZ=          -2014.6258 YYZZ=           -372.2180
 XXYZ=             25.0416 YYXZ=            -32.6950 ZZXY=            -14.1166
 N-N= 1.913291618570D+03 E-N=-6.329035039959D+03  KE= 1.063804242794D+03
 1\1\GINC-C038\SP\RCAM-B3LYP TD-FC\6-31G(d)\C18H20O5\XYCAO\28-Dec-2023\
 0\\# td=(nstates=20,root=20) cam-b3lyp/6-31g(d)\\Title\\0,1\O,0,-3.968
 987,-2.703483,-0.696782\C,0,-3.129373,-1.7121,-0.29022\C,0,-3.575926,-
 0.380541,-0.30288\O,0,-4.875341,-0.161101,-0.74664\C,0,-5.783898,0.258
 117,0.284773\C,0,-2.711984,0.645042,0.091393\O,0,-3.132295,1.960504,0.
 089949\C,0,-3.390192,2.511215,-1.207626\C,0,-1.413016,0.365569,0.54550
 8\C,0,-1.009533,-0.98109,0.577925\O,0,0.244019,-1.3565,0.987721\C,0,0.
 986919,-0.37757,1.726149\C,0,0.983301,0.983189,1.028691\C,0,1.627671,0
 .933355,-0.380736\C,0,3.076579,0.49548,-0.39514\C,0,3.429927,-0.850493
 ,-0.581893\C,0,4.759487,-1.263605,-0.577604\C,0,5.777265,-0.32406,-0.3
 85114\O,0,7.068946,-0.778808,-0.393242\C,0,5.449838,1.02226,-0.198598\
 C,0,4.112176,1.418406,-0.205446\C,0,-0.474979,1.476737,0.973763\C,0,-1
 .845605,-2.016017,0.148501\H,0,-4.77768,-2.253207,-1.004859\H,0,-5.476
 347,1.22144,0.70224\H,0,-5.833429,-0.488761,1.086864\H,0,-6.763234,0.3
 53412,-0.190542\H,0,-3.680829,3.551325,-1.042036\H,0,-2.486105,2.48053
 ,-1.829117\H,0,-4.197805,1.975365,-1.715759\H,0,0.5559,-0.286388,2.734
 057\H,0,1.992771,-0.792485,1.813815\H,0,1.572319,1.672133,1.649234\H,0
 ,1.03453,0.268422,-1.018721\H,0,1.545053,1.937006,-0.817866\H,0,2.6446
 51,-1.587988,-0.730063\H,0,5.026442,-2.305344,-0.725947\H,0,7.666254,-
 0.027718,-0.25396\H,0,6.237872,1.760165,-0.055431\H,0,3.874012,2.47130
 9,-0.067783\H,0,-0.77038,1.854686,1.962865\H,0,-0.567991,2.330399,0.29
 2781\H,0,-1.498685,-3.042559,0.173512\\Version=ES64L-G16RevA.03\State=
 1-A\HF=-1073.5184448\RMSD=7.420e-09\PG=C01 [X(C18H20O5)]\\@


 THE RARE EARTHS PERPLEX US IN OUR RESEARCHES,
 BAFFLE US IN OUR SPECULATIONS, AND HAUNT US IN OUR
 VERY DREAMS.  THEY STRETCH LIKE AN UNKNOWN BEFORE US,
 MOCKING, MYSTIFYING, AND MURMURING STRANGE REVELATIONS
 AND POSSIBILITIES.  -- SIR WILLIAM CROOKE, 1832-1919
 Job cpu time:       0 days  1 hours  9 minutes 35.3 seconds.
 Elapsed time:       0 days  0 hours  2 minutes 11.0 seconds.
 File lengths (MBytes):  RWF=   1798 Int=      0 D2E=      0 Chk=    113 Scr=      1
 Normal termination of Gaussian 16 at Thu Dec 28 13:11:17 2023.
