 Entering Gaussian System, Link 0=g16
 Input=molecule_5_1_ECD.com
 Output=molecule_5_1_ECD.log
 Initial command:
 /share/apps/g16/A03/l1.exe "/tmp/954364.tmpdir/scr/Gau-63858.inp" -scrdir="/tmp/954364.tmpdir/scr/"
 Entering Link 1 = /share/apps/g16/A03/l1.exe PID=     63859.
  
 Copyright (c) 1988,1990,1992,1993,1995,1998,2003,2009,2016,
            Gaussian, Inc.  All Rights Reserved.
  
 This is part of the Gaussian(R) 16 program.  It is based on
 the Gaussian(R) 09 system (copyright 2009, Gaussian, Inc.),
 the Gaussian(R) 03 system (copyright 2003, Gaussian, Inc.),
 the Gaussian(R) 98 system (copyright 1998, Gaussian, Inc.),
 the Gaussian(R) 94 system (copyright 1995, Gaussian, Inc.),
 the Gaussian 92(TM) system (copyright 1992, Gaussian, Inc.),
 the Gaussian 90(TM) system (copyright 1990, Gaussian, Inc.),
 the Gaussian 88(TM) system (copyright 1988, Gaussian, Inc.),
 the Gaussian 86(TM) system (copyright 1986, Carnegie Mellon
 University), and the Gaussian 82(TM) system (copyright 1983,
 Carnegie Mellon University). Gaussian is a federally registered
 trademark of Gaussian, Inc.
  
 This software contains proprietary and confidential information,
 including trade secrets, belonging to Gaussian, Inc.
  
 This software is provided under written license and may be
 used, copied, transmitted, or stored only in accord with that
 written license.
  
 The following legend is applicable only to US Government
 contracts under FAR:
  
                    RESTRICTED RIGHTS LEGEND
  
 Use, reproduction and disclosure by the US Government is
 subject to restrictions as set forth in subparagraphs (a)
 and (c) of the Commercial Computer Software - Restricted
 Rights clause in FAR 52.227-19.
  
 Gaussian, Inc.
 340 Quinnipiac St., Bldg. 40, Wallingford CT 06492
  
  
 ---------------------------------------------------------------
 Warning -- This program may not be used in any manner that
 competes with the business of Gaussian, Inc. or will provide
 assistance to any competitor of Gaussian, Inc.  The licensee
 of this program is prohibited from giving any competitor of
 Gaussian, Inc. access to this program.  By using this program,
 the user acknowledges that Gaussian, Inc. is engaged in the
 business of creating and licensing software in the field of
 computational chemistry and represents and warrants to the
 licensee that it is not a competitor of Gaussian, Inc. and that
 it will not use this program in any manner prohibited above.
 ---------------------------------------------------------------
  

 Cite this work as:
 Gaussian 16, Revision A.03,
 M. J. Frisch, G. W. Trucks, H. B. Schlegel, G. E. Scuseria, 
 M. A. Robb, J. R. Cheeseman, G. Scalmani, V. Barone, 
 G. A. Petersson, H. Nakatsuji, X. Li, M. Caricato, A. V. Marenich, 
 J. Bloino, B. G. Janesko, R. Gomperts, B. Mennucci, H. P. Hratchian, 
 J. V. Ortiz, A. F. Izmaylov, J. L. Sonnenberg, D. Williams-Young, 
 F. Ding, F. Lipparini, F. Egidi, J. Goings, B. Peng, A. Petrone, 
 T. Henderson, D. Ranasinghe, V. G. Zakrzewski, J. Gao, N. Rega, 
 G. Zheng, W. Liang, M. Hada, M. Ehara, K. Toyota, R. Fukuda, 
 J. Hasegawa, M. Ishida, T. Nakajima, Y. Honda, O. Kitao, H. Nakai, 
 T. Vreven, K. Throssell, J. A. Montgomery, Jr., J. E. Peralta, 
 F. Ogliaro, M. J. Bearpark, J. J. Heyd, E. N. Brothers, K. N. Kudin, 
 V. N. Staroverov, T. A. Keith, R. Kobayashi, J. Normand, 
 K. Raghavachari, A. P. Rendell, J. C. Burant, S. S. Iyengar, 
 J. Tomasi, M. Cossi, J. M. Millam, M. Klene, C. Adamo, R. Cammi, 
 J. W. Ochterski, R. L. Martin, K. Morokuma, O. Farkas, 
 J. B. Foresman, and D. J. Fox, Gaussian, Inc., Wallingford CT, 2016.
 
 ******************************************
 Gaussian 16:  ES64L-G16RevA.03 25-Dec-2016
                28-Dec-2023 
 ******************************************
 %nprocs=32
 Will use up to   32 processors via shared memory.
 %chk=molecule_5_1_ECD.chk
 %mem=10GB
 --------------------------------------------
 # td=(nstates=20,root=20) cam-b3lyp/6-31g(d)
 --------------------------------------------
 1/38=1,172=1/1;
 2/12=2,17=6,18=5,40=1/2;
 3/5=1,6=6,7=1,11=9,25=1,30=1,74=-40/1,2,3,8;
 4//1;
 5/5=2,38=5/2;
 8/6=1,10=2,107=20,108=20/1;
 9/8=20,41=20,42=1,70=2/14;
 6/7=2,8=2,9=2,10=2/1;
 99/5=1,9=1/99;
 -----
 Title
 -----
 Symbolic Z-matrix:
 Charge =  0 Multiplicity = 1
 O                    -4.12136   1.18633   0.48739 
 C                    -3.10137   0.57201   0.2266 
 C                    -1.76922   1.37763   0.05111 
 O                    -1.8643    2.59079   0.03103 
 C                    -3.04868  -0.90002   0.07583 
 O                    -4.15068  -1.68064   0.19548 
 C                    -5.43015  -1.20476  -0.25105 
 C                    -1.84349  -1.50462  -0.07006 
 C                    -0.57123  -0.80271  -0.12401 
 C                    -0.50993   0.61575  -0.06946 
 C                     0.75318   1.23883  -0.13148 
 O                     0.80549   2.59097  -0.05751 
 C                     1.93567   0.47684  -0.26642 
 C                     3.28373   1.17227  -0.31616 
 O                     4.36581   0.32539  -0.64708 
 C                     4.357    -0.94821   0.01372 
 C                     4.47529  -0.82924   1.53549 
 C                     3.12278  -1.72992  -0.45613 
 C                     1.85506  -0.91599  -0.3125 
 C                     0.60526  -1.54319  -0.23975 
 H                    -5.35536  -0.73185  -1.23621 
 H                    -5.86146  -0.49684   0.457 
 H                    -6.05185  -2.09981  -0.32489 
 H                    -1.82281  -2.58933  -0.13485 
 H                     1.72627   2.89144  -0.0878 
 H                     3.47426   1.68188   0.64779 
 H                     3.29021   1.94867  -1.09488 
 H                     5.25798  -1.4389   -0.3681 
 H                     5.32292  -0.18797   1.79824 
 H                     3.56956  -0.41475   1.99125 
 H                     4.64472  -1.81777   1.97671 
 H                     3.26199  -1.99252  -1.51354 
 H                     3.0293   -2.67455   0.0936 
 H                     0.55122  -2.62846  -0.27308 
 
                          Input orientation:                          
 ---------------------------------------------------------------------
 Center     Atomic      Atomic             Coordinates (Angstroms)
 Number     Number       Type             X           Y           Z
 ---------------------------------------------------------------------
      1          8           0       -4.121363    1.186332    0.487385
      2          6           0       -3.101368    0.572014    0.226602
      3          6           0       -1.769218    1.377634    0.051106
      4          8           0       -1.864300    2.590792    0.031026
      5          6           0       -3.048684   -0.900017    0.075830
      6          8           0       -4.150684   -1.680643    0.195479
      7          6           0       -5.430151   -1.204755   -0.251053
      8          6           0       -1.843487   -1.504618   -0.070064
      9          6           0       -0.571225   -0.802705   -0.124007
     10          6           0       -0.509933    0.615746   -0.069459
     11          6           0        0.753175    1.238826   -0.131475
     12          8           0        0.805489    2.590971   -0.057514
     13          6           0        1.935671    0.476840   -0.266416
     14          6           0        3.283728    1.172268   -0.316161
     15          8           0        4.365811    0.325388   -0.647078
     16          6           0        4.357002   -0.948214    0.013719
     17          6           0        4.475290   -0.829243    1.535488
     18          6           0        3.122785   -1.729919   -0.456129
     19          6           0        1.855060   -0.915994   -0.312502
     20          6           0        0.605260   -1.543189   -0.239745
     21          1           0       -5.355360   -0.731850   -1.236212
     22          1           0       -5.861458   -0.496843    0.456996
     23          1           0       -6.051848   -2.099807   -0.324891
     24          1           0       -1.822814   -2.589332   -0.134849
     25          1           0        1.726268    2.891444   -0.087797
     26          1           0        3.474259    1.681881    0.647787
     27          1           0        3.290206    1.948672   -1.094879
     28          1           0        5.257984   -1.438895   -0.368099
     29          1           0        5.322922   -0.187972    1.798238
     30          1           0        3.569559   -0.414745    1.991245
     31          1           0        4.644715   -1.817772    1.976705
     32          1           0        3.261986   -1.992516   -1.513541
     33          1           0        3.029298   -2.674552    0.093595
     34          1           0        0.551224   -2.628462   -0.273080
 ---------------------------------------------------------------------
                    Distance matrix (angstroms):
                    1          2          3          4          5
     1  O    0.000000
     2  C    1.218927   0.000000
     3  C    2.399900   1.566667   0.000000
     4  O    2.697240   2.375721   1.217044   0.000000
     5  C    2.381779   1.480670   2.612535   3.686532   0.000000
     6  O    2.881946   2.485256   3.878825   4.847654   1.355764
     7  C    2.824095   2.967877   4.490263   5.215462   2.423036
     8  C    3.569409   2.445951   2.885754   4.096710   1.356218
     9  C    4.115039   2.900759   2.493939   3.634818   2.487410
    10  C    3.698388   2.608659   1.476756   2.396918   2.960389
    11  C    4.913946   3.928150   2.532799   2.950490   4.367122
    12  O    5.152067   4.406863   2.848351   2.671257   5.201868
    13  C    6.144856   5.062004   3.826023   4.358560   5.182341
    14  C    7.448574   6.436175   5.070436   5.351163   6.674389
    15  O    8.605833   7.522161   6.263646   6.663795   7.549765
    16  C    8.755759   7.614703   6.552979   7.157476   7.406103
    17  C    8.891766   7.815526   6.787310   7.358699   7.664581
    18  C    7.865902   6.671214   5.817720   6.616410   6.249700
    19  C    6.385705   5.202978   4.304455   5.123397   4.919122
    20  C    5.506357   4.293094   3.775440   4.823053   3.723515
    21  H    2.858838   2.986698   4.355172   4.983306   2.659039
    22  H    2.421143   2.968776   4.519385   5.068749   2.866973
    23  H    3.896829   4.018470   5.529457   6.297933   3.258691
    24  H    4.463871   3.429206   3.971684   5.182945   2.097839
    25  H    6.118254   5.365135   3.811737   3.605092   6.099354
    26  H    7.613460   6.681921   5.286080   5.450388   7.038616
    27  H    7.616829   6.670361   5.218921   5.314971   7.047490
    28  H    9.777311   8.618364   7.582225   8.192961   8.335958
    29  H    9.633357   8.603271   7.470076   7.905740   8.576566
    30  H    7.998458   6.970576   5.956450   6.511723   6.906913
    31  H    9.385459   8.293114   7.420046   8.098665   7.977718
    32  H    8.283877   7.077937   6.254522   7.047780   6.598804
    33  H    8.135936   6.938512   6.280746   7.188537   6.331758
    34  H    6.079805   4.882024   4.640943   5.759153   4.008566
                    6          7          8          9         10
     6  O    0.000000
     7  C    1.436279   0.000000
     8  C    2.329089   3.603725   0.000000
     9  C    3.699375   4.877186   1.454043   0.000000
    10  C    4.312617   5.249357   2.504857   1.420822   0.000000
    11  C    5.716470   6.649730   3.777950   2.433504   1.409793
    12  O    6.547850   7.302616   4.877610   3.662895   2.373182
    13  C    6.473932   7.555351   4.271623   2.818163   2.457451
    14  C    7.979433   9.032506   5.789181   4.335678   3.842192
    15  O    8.790037   9.922653   6.499019   5.091220   4.918418
    16  C    8.541090   9.794094   6.225967   4.932298   5.112724
    17  C    8.770857  10.072264   6.554454   5.312433   5.432890
    18  C    7.302765   8.571497   4.986348   3.823054   4.341463
    19  C    6.075499   7.291190   3.752933   2.436231   2.828160
    20  C    4.777794   6.044903   2.454922   1.394930   2.435909
    21  H    2.097902   1.095341   3.780254   4.912226   5.162896
    22  H    2.096788   1.090183   4.175823   5.330824   5.491250
    23  H    2.015169   1.092281   4.257874   5.635606   6.176754
    24  H    2.520677   3.865674   1.086844   2.181428   3.464168
    25  H    7.451362   8.247414   5.662934   4.350462   3.190569
    26  H    8.345712   9.403675   6.240794   4.809862   4.186272
    27  H    8.378771   9.311325   6.271384   4.839764   4.155627
    28  H    9.428632  10.691340   7.108026   5.868901   6.130220
    29  H    9.723483  10.993726   7.522069   6.230080   6.177091
    30  H    8.026794   9.308426   5.893885   4.665929   4.685154
    31  H    8.974999  10.336422   6.810587   5.713964   6.056335
    32  H    7.613520   8.818599   5.327994   4.247348   4.807887
    33  H    7.249164   8.593100   5.013937   4.063856   4.835163
    34  H    4.819320   6.148518   2.653089   2.148372   3.419415
                   11         12         13         14         15
    11  C    0.000000
    12  O    1.355176   0.000000
    13  C    1.413198   2.406346   0.000000
    14  C    2.538156   2.867278   1.517680   0.000000
    15  O    3.761829   4.261026   2.464431   1.413370   0.000000
    16  C    4.218032   5.014394   2.823490   2.399413   1.434849
    17  C    4.572725   5.263360   3.376740   2.975646   2.471589
    18  C    3.812335   4.919232   2.512970   2.910014   2.409536
    19  C    2.426967   3.669526   1.395926   2.530206   2.820787
    20  C    2.788047   4.143016   2.418930   3.814936   4.218915
    21  H    6.512926   7.098347   7.453896   8.894155   9.796224
    22  H    6.863834   7.365290   7.890919   9.328351  10.319500
    23  H    7.582362   8.312518   8.393032   9.892398  10.701074
    24  H    4.614166   5.809432   4.852312   6.345020   6.859814
    25  H    1.918323   0.969038   2.430240   2.330965   3.723523
    26  H    2.864934   2.906239   2.157578   1.106889   2.076443
    27  H    2.805094   2.768121   2.165042   1.099658   1.998125
    28  H    5.245902   6.013401   3.836423   3.273921   1.996621
    29  H    5.161602   5.619034   4.022218   3.237167   2.675663
    30  H    3.895158   4.568569   2.926012   2.815037   2.853518
    31  H    5.378782   6.189888   4.199495   4.006228   3.399288
    32  H    4.318079   5.400254   3.067923   3.383792   2.709588
    33  H    4.532761   5.717857   3.355130   3.876939   3.366675
    34  H    3.875146   5.230067   3.399947   4.681237   4.839027
                   16         17         18         19         20
    16  C    0.000000
    17  C    1.530989   0.000000
    18  C    1.534637   2.570413   0.000000
    19  C    2.523326   3.207522   1.513350   0.000000
    20  C    3.807073   4.317210   2.533697   1.400238   0.000000
    21  H    9.794852  10.214376   8.572258   7.271678   6.097558
    22  H   10.238025  10.398173   9.114324   7.766110   6.587771
    23  H   10.477833  10.765499   9.183024   7.995046   6.680880
    24  H    6.395738   6.749374   5.029986   4.044549   2.645933
    25  H    4.655539   4.902621   4.841789   3.816237   4.576649
    26  H    2.845817   2.845315   3.603130   3.208257   4.406807
    27  H    3.280090   4.005005   3.737387   3.298192   4.487013
    28  H    1.094679   2.146609   2.156738   3.443314   4.655662
    29  H    2.166905   1.094873   3.507189   4.124476   5.314727
    30  H    2.194371   1.095387   2.814059   2.915134   3.877856
    31  H    2.166154   1.095704   2.871005   3.719657   4.615760
    32  H    2.149919   3.481650   1.098387   2.140289   2.980376
    33  H    2.179317   2.752292   1.096936   2.153201   2.695748
    34  H    4.170064   4.680427   2.730167   2.152693   1.087129
                   21         22         23         24         25
    21  H    0.000000
    22  H    1.782783   0.000000
    23  H    1.785191   1.793625   0.000000
    24  H    4.140304   4.586877   4.261511   0.000000
    25  H    8.037199   8.327717   9.244884   6.529709   0.000000
    26  H    9.345465   9.588475  10.295338   6.849435   2.249355
    27  H    9.052678   9.599053  10.210634   6.903485   2.085410
    28  H   10.672235  11.189738  11.329209   7.177438   5.594946
    29  H   11.114378  11.268748  11.728094   7.782345   5.096651
    30  H    9.495852   9.555351  10.038695   6.190864   4.318683
    31  H   10.559525  10.697385  10.945015   6.847109   5.912378
    32  H    8.713486   9.452898   9.389990   5.302091   5.314531
    33  H    8.708902   9.160787   9.108934   4.858234   5.719362
    34  H    6.277937   6.797007   6.624403   2.378381   5.646629
                   26         27         28         29         30
    26  H    0.000000
    27  H    1.772551   0.000000
    28  H    3.735364   3.984466   0.000000
    29  H    2.870095   4.131260   2.502407   0.000000
    30  H    2.491947   3.897171   3.076714   1.778471   0.000000
    31  H    3.922188   5.045337   2.453111   1.774278   1.767670
    32  H    4.268207   3.963463   2.366969   4.297873   3.855838
    33  H    4.414026   4.780664   2.589797   3.788086   2.999948
    34  H    5.288779   5.396993   4.855686   5.745907   4.374706
                   31         32         33         34
    31  H    0.000000
    32  H    3.758230   0.000000
    33  H    2.624833   1.761307   0.000000
    34  H    4.740825   3.048180   2.505479   0.000000
 Stoichiometry    C15H14O5
 Framework group  C1[X(C15H14O5)]
 Deg. of freedom    96
 Full point group                 C1      NOp   1
 Largest Abelian subgroup         C1      NOp   1
 Largest concise Abelian subgroup C1      NOp   1
                         Standard orientation:                         
 ---------------------------------------------------------------------
 Center     Atomic      Atomic             Coordinates (Angstroms)
 Number     Number       Type             X           Y           Z
 ---------------------------------------------------------------------
      1          8           0       -4.121363    1.186332    0.487385
      2          6           0       -3.101368    0.572014    0.226602
      3          6           0       -1.769218    1.377634    0.051106
      4          8           0       -1.864300    2.590792    0.031026
      5          6           0       -3.048684   -0.900017    0.075830
      6          8           0       -4.150684   -1.680643    0.195479
      7          6           0       -5.430151   -1.204755   -0.251053
      8          6           0       -1.843487   -1.504618   -0.070064
      9          6           0       -0.571225   -0.802705   -0.124007
     10          6           0       -0.509933    0.615746   -0.069459
     11          6           0        0.753175    1.238826   -0.131475
     12          8           0        0.805489    2.590971   -0.057514
     13          6           0        1.935671    0.476840   -0.266416
     14          6           0        3.283728    1.172268   -0.316161
     15          8           0        4.365811    0.325388   -0.647078
     16          6           0        4.357002   -0.948214    0.013719
     17          6           0        4.475290   -0.829243    1.535488
     18          6           0        3.122785   -1.729919   -0.456129
     19          6           0        1.855060   -0.915994   -0.312502
     20          6           0        0.605260   -1.543189   -0.239745
     21          1           0       -5.355360   -0.731850   -1.236212
     22          1           0       -5.861458   -0.496843    0.456996
     23          1           0       -6.051848   -2.099807   -0.324891
     24          1           0       -1.822814   -2.589332   -0.134849
     25          1           0        1.726268    2.891444   -0.087797
     26          1           0        3.474259    1.681881    0.647787
     27          1           0        3.290206    1.948672   -1.094879
     28          1           0        5.257984   -1.438895   -0.368099
     29          1           0        5.322922   -0.187972    1.798238
     30          1           0        3.569559   -0.414745    1.991245
     31          1           0        4.644715   -1.817772    1.976705
     32          1           0        3.261986   -1.992516   -1.513541
     33          1           0        3.029298   -2.674552    0.093595
     34          1           0        0.551224   -2.628462   -0.273080
 ---------------------------------------------------------------------
 Rotational constants (GHZ):           0.8099244           0.1870584           0.1581303
 Standard basis: 6-31G(d) (6D, 7F)
 There are   328 symmetry adapted cartesian basis functions of A   symmetry.
 There are   328 symmetry adapted basis functions of A   symmetry.
   328 basis functions,   616 primitive gaussians,   328 cartesian basis functions
    72 alpha electrons       72 beta electrons
       nuclear repulsion energy      1531.5839520958 Hartrees.
 NAtoms=   34 NActive=   34 NUniq=   34 SFac= 1.00D+00 NAtFMM=   60 NAOKFM=F Big=F
 Integral buffers will be    131072 words long.
 Raffenetti 1 integral format.
 Two-electron integral symmetry is turned on.
 One-electron integrals computed using PRISM.
 NBasis=   328 RedAO= T EigKep=  2.33D-04  NBF=   328
 NBsUse=   328 1.00D-06 EigRej= -1.00D+00 NBFU=   328
 ExpMin= 1.61D-01 ExpMax= 5.48D+03 ExpMxC= 8.25D+02 IAcc=3 IRadAn=         5 AccDes= 0.00D+00
 Harris functional with IExCor=20419 and IRadAn=       5 diagonalized for initial guess.
 HarFok:  IExCor=20419 AccDes= 0.00D+00 IRadAn=         5 IDoV= 1 UseB2=F ITyADJ=14
 ICtDFT=  3500011 ScaDFX=  1.000000  1.000000  1.000000  1.000000
 FoFCou: FMM=F IPFlag=           0 FMFlag=      100000 FMFlg1=           0
         NFxFlg=           0 DoJE=T BraDBF=F KetDBF=T FulRan=T
         wScrn=  0.000000 ICntrl=       500 IOpCl=  0 I1Cent=   200000004 NGrid=           0
         NMat0=    1 NMatS0=      1 NMatT0=    0 NMatD0=    1 NMtDS0=    0 NMtDT0=    0
 Petite list used in FoFCou.
 Requested convergence on RMS density matrix=1.00D-08 within 128 cycles.
 Requested convergence on MAX density matrix=1.00D-06.
 Requested convergence on             energy=1.00D-06.
 No special actions if energy rises.
 Integral accuracy reduced to 1.0D-05 until final iterations.
 Initial convergence to 1.0D-05 achieved.  Increase integral accuracy.
 SCF Done:  E(RCAM-B3LYP) =  -955.646747760     A.U. after   18 cycles
            NFock= 18  Conv=0.66D-08     -V/T= 2.0090
 DoSCS=F DFT=T ScalE2(SS,OS)=  1.000000  1.000000
 ExpMin= 1.61D-01 ExpMax= 5.48D+03 ExpMxC= 8.25D+02 IAcc=3 IRadAn=         5 AccDes= 0.00D+00
 HarFok:  IExCor=  205 AccDes= 0.00D+00 IRadAn=         5 IDoV=-2 UseB2=F ITyADJ=14
 ICtDFT= 12500011 ScaDFX=  1.000000  1.000000  1.000000  1.000000
 Range of M.O.s used for correlation:    21   328
 NBasis=   328 NAE=    72 NBE=    72 NFC=    20 NFV=     0
 NROrb=    308 NOA=    52 NOB=    52 NVA=   256 NVB=   256
 Orbital symmetries:
       Occupied  (A) (A) (A) (A) (A) (A) (A) (A) (A) (A) (A) (A)
                 (A) (A) (A) (A) (A) (A) (A) (A) (A) (A) (A) (A)
                 (A) (A) (A) (A) (A) (A) (A) (A) (A) (A) (A) (A)
                 (A) (A) (A) (A) (A) (A) (A) (A) (A) (A) (A) (A)
                 (A) (A) (A) (A) (A) (A) (A) (A) (A) (A) (A) (A)
                 (A) (A) (A) (A) (A) (A) (A) (A) (A) (A) (A) (A)
       Virtual   (A) (A) (A) (A) (A) (A) (A) (A) (A) (A) (A) (A)
                 (A) (A) (A) (A) (A) (A) (A) (A) (A) (A) (A) (A)
                 (A) (A) (A) (A) (A) (A) (A) (A) (A) (A) (A) (A)
                 (A) (A) (A) (A) (A) (A) (A) (A) (A) (A) (A) (A)
                 (A) (A) (A) (A) (A) (A) (A) (A) (A) (A) (A) (A)
                 (A) (A) (A) (A) (A) (A) (A) (A) (A) (A) (A) (A)
                 (A) (A) (A) (A) (A) (A) (A) (A) (A) (A) (A) (A)
                 (A) (A) (A) (A) (A) (A) (A) (A) (A) (A) (A) (A)
                 (A) (A) (A) (A) (A) (A) (A) (A) (A) (A) (A) (A)
                 (A) (A) (A) (A) (A) (A) (A) (A) (A) (A) (A) (A)
                 (A) (A) (A) (A) (A) (A) (A) (A) (A) (A) (A) (A)
                 (A) (A) (A) (A) (A) (A) (A) (A) (A) (A) (A) (A)
                 (A) (A) (A) (A) (A) (A) (A) (A) (A) (A) (A) (A)
                 (A) (A) (A) (A) (A) (A) (A) (A) (A) (A) (A) (A)
                 (A) (A) (A) (A) (A) (A) (A) (A) (A) (A) (A) (A)
                 (A) (A) (A) (A) (A) (A) (A) (A) (A) (A) (A) (A)
                 (A) (A) (A) (A) (A) (A) (A) (A) (A) (A) (A) (A)
                 (A) (A) (A) (A) (A) (A) (A) (A) (A) (A) (A) (A)
                 (A) (A) (A) (A) (A) (A) (A) (A) (A) (A) (A) (A)
                 (A) (A) (A) (A) (A) (A) (A) (A) (A) (A) (A) (A)
                 (A) (A) (A) (A) (A) (A) (A) (A) (A) (A) (A) (A)
                 (A) (A) (A) (A)
    80 initial guesses have been made.
 Convergence on wavefunction:    0.001000000000000
 Iteration     1 Dimension    80 NMult     0 NNew     80
 CISAX will form    80 AO SS matrices at one time.
 New state      1 was old state      3
 New state      2 was old state      1
 New state      3 was old state      7
 New state      4 was old state      2
 New state      6 was old state      4
 New state      7 was old state     10
 New state      8 was old state      6
 New state      9 was old state      8
 New state     10 was old state     12
 New state     11 was old state     14
 New state     12 was old state      9
 New state     13 was old state     11
 New state     14 was old state     13
 New state     15 was old state     16
 New state     16 was old state     21
 New state     17 was old state     15
 New state     18 was old state     28
 New state     19 was old state     20
 New state     20 was old state     19
 Iteration     2 Dimension   120 NMult    80 NNew     40
 New state     11 was old state     12
 New state     12 was old state     11
 New state     13 was old state     14
 New state     14 was old state     13
 Iteration     3 Dimension   160 NMult   120 NNew     40
 Iteration     4 Dimension   200 NMult   160 NNew     40
 Iteration     5 Dimension   224 NMult   200 NNew     24
 Iteration     6 Dimension   236 NMult   224 NNew     12
 ***********************************************************************
 Excited states from <AA,BB:AA,BB> singles matrix:
 ***********************************************************************
 
 Ground to excited state transition densities written to RWF  633
 Ground to excited state transition electric dipole moments (Au):
       state          X           Y           Z        Dip. S.      Osc.
         1         0.1505     -0.0124     -0.0019      0.0228      0.0014
         2         1.2759      0.1525     -0.0917      1.6596      0.1237
         3        -0.0348      0.0806     -0.0016      0.0077      0.0007
         4        -0.9574      0.2534      0.0561      0.9839      0.0917
         5         0.4052     -0.5558     -0.0548      0.4761      0.0602
         6        -1.8167      0.5332      0.0961      3.5938      0.4634
         7         0.2606     -0.0667      0.0100      0.0725      0.0097
         8         0.2410     -0.1762     -0.0688      0.0939      0.0127
         9         0.2745     -0.1258      0.0143      0.0914      0.0128
        10        -0.5039      0.3826      0.0495      0.4027      0.0596
        11         1.6684      0.7257     -0.0282      3.3110      0.4914
        12        -0.4702     -0.2664     -0.0565      0.2953      0.0453
        13        -0.5790      0.6698      0.0971      0.7933      0.1252
        14         0.1570     -0.1697     -0.0363      0.0548      0.0089
        15         0.5165     -0.1519     -0.0770      0.2958      0.0491
        16        -0.4239      0.2909      0.0264      0.2650      0.0448
        17         0.1107      0.2684      0.0435      0.0862      0.0148
        18         0.0849     -0.3247     -0.0282      0.1134      0.0195
        19        -0.3027      0.3080      0.0916      0.1949      0.0339
        20        -0.0752     -0.0669      0.0660      0.0145      0.0025
 Ground to excited state transition velocity dipole moments (Au):
       state          X           Y           Z        Dip. S.      Osc.
         1        -0.0106     -0.0009      0.0070      0.0002      0.0012
         2        -0.1475     -0.0344      0.0111      0.0230      0.1374
         3         0.0021     -0.0111     -0.0005      0.0001      0.0006
         4         0.1255     -0.0340     -0.0072      0.0170      0.0809
         5        -0.0725      0.0898      0.0102      0.0134      0.0472
         6         0.3301     -0.1056     -0.0189      0.1205      0.4153
         7        -0.0497      0.0141     -0.0030      0.0027      0.0088
         8        -0.0504      0.0313      0.0145      0.0037      0.0123
         9        -0.0458      0.0320     -0.0041      0.0031      0.0100
        10         0.1056     -0.0784     -0.0083      0.0174      0.0522
        11        -0.3639     -0.1548      0.0063      0.1564      0.4684
        12         0.1088      0.0581      0.0167      0.0155      0.0449
        13         0.1313     -0.1553     -0.0290      0.0422      0.1189
        14        -0.0417      0.0389      0.0097      0.0034      0.0092
        15        -0.1241      0.0352      0.0204      0.0171      0.0457
        16         0.1037     -0.0697     -0.0054      0.0157      0.0412
        17        -0.0309     -0.0667     -0.0121      0.0055      0.0144
        18        -0.0233      0.0727      0.0124      0.0060      0.0155
        19         0.0775     -0.0743     -0.0251      0.0122      0.0311
        20         0.0153      0.0205     -0.0602      0.0043      0.0108
 Ground to excited state transition magnetic dipole moments (Au):
       state          X           Y           Z
         1        -0.2592     -0.1688      0.0181
         2        -0.0989      0.1820     -1.1356
         3         0.4835     -0.8074     -0.2053
         4        -0.0506      0.0291      0.1410
         5         0.1648     -0.0480     -0.0840
         6        -0.0752     -0.1749      0.2429
         7        -0.0725     -0.3541     -0.0085
         8         0.0463     -0.2457     -0.0673
         9         0.1254     -0.1233     -0.0938
        10         0.5701     -0.1843      0.2622
        11         0.0940      0.0790     -0.5227
        12         0.3393      0.0702      0.0349
        13         0.0368     -0.1140      0.3709
        14         0.0628     -0.0043     -0.3163
        15         0.3057      0.0293     -0.2523
        16        -0.1187     -0.1283     -0.0726
        17        -0.2229      0.4205     -0.1632
        18         0.0797      0.0842      0.2196
        19         0.1319      0.0984     -0.3661
        20        -0.4522      0.3830      0.1757
 Ground to excited state transition velocity quadrupole moments (Au):
       state          XX          YY          ZZ          XY          XZ          YZ
         1         0.0468      0.0077     -0.0054      0.0071     -0.0132     -0.0016
         2         0.8992     -0.1442     -0.0053      0.0394     -0.0646      0.0161
         3         0.0805     -0.0356      0.0028      0.0285      0.0215      0.0248
         4         0.2063     -0.0708      0.0269      0.1971     -0.0213     -0.0095
         5         0.4708      0.0731     -0.0309      0.0884      0.0009     -0.0456
         6        -0.8173      0.0217      0.0736     -0.1415      0.0181      0.0264
         7        -0.0659      0.0034     -0.0276     -0.0897      0.0136      0.0156
         8         0.3579     -0.0594      0.0121     -0.0141      0.0415      0.0115
         9         0.3063      0.1071     -0.0306      0.5187      0.0598     -0.0072
        10        -0.1454      0.0344      0.0349      0.0994      0.0592      0.0593
        11         0.5520     -0.0772     -0.0434      0.1440      0.0815      0.0644
        12        -0.2831      0.0639     -0.0107     -0.1201     -0.1177      0.0057
        13        -0.2696      0.1513      0.0646     -0.1274      0.0403      0.0873
        14         0.2101     -0.1136      0.0195      0.0472     -0.0488     -0.0070
        15         0.2244     -0.2373     -0.0706      0.2008     -0.0573      0.0387
        16         0.9653     -0.1023      0.0595      0.0549     -0.0242     -0.0283
        17         0.4709     -0.1071      0.0281      0.1727     -0.0394     -0.0631
        18        -0.9406      0.0091     -0.0755     -0.3052     -0.0950      0.0249
        19         0.7328      0.0169      0.0956     -0.0653     -0.0562     -0.0020
        20         0.1495     -0.0618      0.0229     -0.0381     -0.2586     -0.3411
 <0|del|b> * <b|rxdel|0> + <0|del|b> * <b|delr+rdel|0>
 Rotatory Strengths (R) in cgs (10**-40 erg-esu-cm/Gauss)
       state          XX          YY          ZZ    R(velocity)    E-M Angle
         1         1.2412     11.2261     11.4198      7.9624       40.08
         2       -65.2159     -2.5459     40.8756     -8.9620       91.39
         3        24.5899      3.1037     25.6597     17.7844       22.39
         4       -10.5262    -18.0621    -13.7292    -14.1058      114.90
         5        -8.0910    -19.3873    -36.3465    -21.2749      140.63
         6        33.7463    -42.7472    -31.0590    -13.3533       95.87
         7        -8.5369      4.5187     -0.7220     -1.5800       94.15
         8       -17.7382     -6.4208    -14.2052    -12.7881      134.12
         9       -12.8137     -4.8876    -13.6571    -10.4528      146.44
        10        25.6196    103.7366    101.5543     76.9702       32.77
        11        -3.1558    -98.1816    -56.5460    -52.6278      103.54
        12        14.5867     61.6595     51.5272     42.5911       16.42
        13        25.2596      2.7468      7.1812     11.7292       81.54
        14        -1.2778     -8.5026     -7.2275     -5.6693      108.30
        15         2.8439    -73.8338    -48.4808    -39.8236      144.09
        16        10.2665    -20.3193      1.7599     -2.7643       97.21
        17       -42.2536     17.6713    -28.1235    -17.5686      120.83
        18        16.3910      5.6161     -2.8297      6.3924       68.63
        19        -0.9188     23.8612      9.8205     10.9210       74.15
        20         6.5172    -33.6600      1.1332     -8.6699      103.84
 1/2[<0|r|b>*<b|rxdel|0> + (<0|rxdel|b>*<b|r|0>)*]
 Rotatory Strengths (R) in cgs (10**-40 erg-esu-cm/Gauss)
       state          XX          YY          ZZ     R(length)
         1        27.5792     -1.4758      0.0237      8.7090
         2        89.2592    -19.6332    -73.5984     -1.3241
         3        11.8851     46.0041     -0.2305     19.2196
         4       -34.2848     -5.2206     -5.5879    -15.0311
         5       -47.2195    -18.8539     -3.2529    -23.1088
         6       -96.6097     65.9424    -16.5046    -15.7240
         7        13.3602    -16.7072      0.0596     -1.0958
         8        -7.8915    -30.6173     -3.2745    -13.9278
         9       -24.3333    -10.9722      0.9503    -11.4517
        10       203.1510     49.8535     -9.1760     81.2762
        11      -110.8815    -40.5268    -10.4330    -53.9471
        12       112.8132     13.2270      1.3918     42.4774
        13        15.0705     54.0068    -25.4694     14.5360
        14        -6.9784     -0.5123     -8.1238     -5.2049
        15      -111.6581      3.1534    -13.7461    -40.7503
        16       -35.5814     26.3970      1.3558     -2.6095
        17        17.4485    -79.8307      5.0164    -19.1219
        18        -4.7832     19.3311      4.3794      6.3091
        19        28.2346    -21.4348     23.7092     10.1697
        20       -24.0469     18.1336     -8.2008     -4.7047
  1/2[<0|del|b>*<b|r|0> + (<0|r|b>*<b|del|0>)*] (Au)
       state          X           Y           Z        Dip. S.   Osc.(frdel)
         1        -0.0016      0.0000     -0.0000      0.0016      0.0011
         2        -0.1881     -0.0052     -0.0010      0.1944      0.1296
         3        -0.0001     -0.0009      0.0000      0.0010      0.0006
         4        -0.1201     -0.0086     -0.0004      0.1292      0.0861
         5        -0.0294     -0.0499     -0.0006      0.0798      0.0532
         6        -0.5997     -0.0563     -0.0018      0.6579      0.4386
         7        -0.0129     -0.0009     -0.0000      0.0139      0.0093
         8        -0.0121     -0.0055     -0.0010      0.0187      0.0124
         9        -0.0126     -0.0040     -0.0001      0.0166      0.0111
        10        -0.0532     -0.0300     -0.0004      0.0836      0.0557
        11        -0.6071     -0.1123     -0.0002      0.7196      0.4798
        12        -0.0511     -0.0155     -0.0009      0.0676      0.0450
        13        -0.0760     -0.1040     -0.0028      0.1829      0.1219
        14        -0.0066     -0.0066     -0.0004      0.0135      0.0090
        15        -0.0641     -0.0053     -0.0016      0.0710      0.0473
        16        -0.0440     -0.0203     -0.0001      0.0644      0.0429
        17        -0.0034     -0.0179     -0.0005      0.0219      0.0146
        18        -0.0020     -0.0236     -0.0004      0.0259      0.0173
        19        -0.0235     -0.0229     -0.0023      0.0486      0.0324
        20        -0.0012     -0.0014     -0.0040      0.0065      0.0043

 Excitation energies and oscillator strengths:
 
 Excited State   1:      Singlet-A      2.4256 eV  511.14 nm  f=0.0014  <S**2>=0.000
      70 -> 73         0.65634
      70 -> 75        -0.12261
      71 -> 73         0.10324
      72 -> 73         0.13475
 
 Excited State   2:      Singlet-A      3.0428 eV  407.47 nm  f=0.1237  <S**2>=0.000
      70 -> 73        -0.15417
      71 -> 73         0.15873
      72 -> 73         0.66412
 
 Excited State   3:      Singlet-A      3.6430 eV  340.34 nm  f=0.0007  <S**2>=0.000
      67 -> 73         0.58062
      67 -> 75        -0.13043
      68 -> 73        -0.26642
      70 -> 74         0.16233
 
 Excited State   4:      Singlet-A      3.8040 eV  325.93 nm  f=0.0917  <S**2>=0.000
      71 -> 73         0.65036
      72 -> 73        -0.16540
      72 -> 74        -0.16075
 
 Excited State   5:      Singlet-A      5.1602 eV  240.27 nm  f=0.0602  <S**2>=0.000
      65 -> 73         0.13325
      67 -> 73         0.24940
      68 -> 73         0.59035
      69 -> 73         0.17070
      71 -> 74        -0.12935
 
 Excited State   6:      Singlet-A      5.2637 eV  235.55 nm  f=0.4634  <S**2>=0.000
      65 -> 73        -0.11837
      71 -> 73         0.15933
      71 -> 74         0.12328
      71 -> 75        -0.14255
      72 -> 74         0.62059
 
 Excited State   7:      Singlet-A      5.4888 eV  225.89 nm  f=0.0097  <S**2>=0.000
      67 -> 73        -0.11456
      68 -> 73         0.12709
      69 -> 73        -0.27480
      70 -> 73        -0.10582
      70 -> 74         0.55174
      70 -> 76        -0.16638
 
 Excited State   8:      Singlet-A      5.5200 eV  224.61 nm  f=0.0127  <S**2>=0.000
      67 -> 73        -0.11447
      68 -> 73        -0.11491
      69 -> 73         0.57908
      69 -> 75         0.12101
      70 -> 74         0.27241
 
 Excited State   9:      Singlet-A      5.7067 eV  217.26 nm  f=0.0128  <S**2>=0.000
      68 -> 73         0.13145
      71 -> 74         0.47958
      72 -> 74        -0.18132
      72 -> 75         0.43812
 
 Excited State  10:      Singlet-A      6.0400 eV  205.27 nm  f=0.0596  <S**2>=0.000
      64 -> 73         0.20275
      65 -> 73         0.50984
      66 -> 73         0.12321
      67 -> 73        -0.19388
      68 -> 74        -0.10001
      70 -> 75         0.22986
 
 Excited State  11:      Singlet-A      6.0575 eV  204.68 nm  f=0.4914  <S**2>=0.000
      70 -> 75         0.15343
      71 -> 74        -0.45081
      72 -> 75         0.47606
 
 Excited State  12:      Singlet-A      6.2598 eV  198.07 nm  f=0.0453  <S**2>=0.000
      65 -> 73        -0.12712
      66 -> 73        -0.18157
      68 -> 74         0.14346
      69 -> 73        -0.10929
      70 -> 73         0.11126
      70 -> 75         0.50467
      71 -> 74         0.13853
      71 -> 75         0.24590
      72 -> 75        -0.10316
 
 Excited State  13:      Singlet-A      6.4415 eV  192.48 nm  f=0.1252  <S**2>=0.000
      62 -> 73         0.11219
      65 -> 73         0.13278
      66 -> 73         0.13926
      68 -> 74         0.13954
      70 -> 75        -0.20181
      71 -> 75         0.51549
      72 -> 74         0.15762
      72 -> 75         0.12466
      72 -> 76        -0.21925
 
 Excited State  14:      Singlet-A      6.6321 eV  186.95 nm  f=0.0089  <S**2>=0.000
      60 -> 73        -0.12333
      63 -> 73        -0.10335
      65 -> 73        -0.25445
      66 -> 73         0.53476
      66 -> 75         0.11673
      70 -> 75         0.21056
 
 Excited State  15:      Singlet-A      6.7722 eV  183.08 nm  f=0.0491  <S**2>=0.000
      57 -> 73        -0.11121
      58 -> 73        -0.16502
      59 -> 73        -0.10814
      60 -> 73         0.10592
      62 -> 73         0.10325
      63 -> 73        -0.15432
      64 -> 73         0.51304
      65 -> 73        -0.20140
      66 -> 73        -0.11963
      68 -> 75         0.10982
 
 Excited State  16:      Singlet-A      6.8944 eV  179.83 nm  f=0.0448  <S**2>=0.000
      62 -> 73        -0.11397
      66 -> 73        -0.12039
      67 -> 74         0.40308
      67 -> 76        -0.14934
      68 -> 74        -0.37761
      71 -> 75         0.21316
      72 -> 76         0.18540
 
 Excited State  17:      Singlet-A      7.0134 eV  176.78 nm  f=0.0148  <S**2>=0.000
      58 -> 73         0.26745
      63 -> 73         0.24648
      64 -> 73         0.15740
      66 -> 73         0.11077
      69 -> 74         0.34215
      70 -> 74         0.12454
      70 -> 76         0.18080
      72 -> 76         0.23981
 
 Excited State  18:      Singlet-A      7.0199 eV  176.62 nm  f=0.0195  <S**2>=0.000
      62 -> 73         0.12813
      64 -> 73        -0.12243
      67 -> 74         0.18342
      69 -> 74         0.46454
      70 -> 76         0.14488
      71 -> 75        -0.18759
      72 -> 76        -0.30606
 
 Excited State  19:      Singlet-A      7.0985 eV  174.66 nm  f=0.0339  <S**2>=0.000
      58 -> 73        -0.24411
      62 -> 73        -0.18559
      63 -> 73        -0.25008
      64 -> 73        -0.23389
      67 -> 74        -0.24125
      67 -> 75        -0.10672
      69 -> 74         0.20688
      71 -> 75         0.13380
      72 -> 76         0.27119
 
 Excited State  20:      Singlet-A      7.1522 eV  173.35 nm  f=0.0025  <S**2>=0.000
      68 -> 77        -0.18245
      71 -> 77        -0.36055
      72 -> 76        -0.10144
      72 -> 77         0.51991
 This state for optimization and/or second-order correction.
 Total Energy, E(TD-HF/TD-DFT) =  -955.383910313    
 Copying the excited state density for this state as the 1-particle RhoCI density.
 SavETr:  write IOETrn=   770 NScale= 10 NData=  16 NLR=1 NState=   20 LETran=     370.

 **********************************************************************

            Population analysis using the SCF density.

 **********************************************************************

 Orbital symmetries:
       Occupied  (A) (A) (A) (A) (A) (A) (A) (A) (A) (A) (A) (A)
                 (A) (A) (A) (A) (A) (A) (A) (A) (A) (A) (A) (A)
                 (A) (A) (A) (A) (A) (A) (A) (A) (A) (A) (A) (A)
                 (A) (A) (A) (A) (A) (A) (A) (A) (A) (A) (A) (A)
                 (A) (A) (A) (A) (A) (A) (A) (A) (A) (A) (A) (A)
                 (A) (A) (A) (A) (A) (A) (A) (A) (A) (A) (A) (A)
       Virtual   (A) (A) (A) (A) (A) (A) (A) (A) (A) (A) (A) (A)
                 (A) (A) (A) (A) (A) (A) (A) (A) (A) (A) (A) (A)
                 (A) (A) (A) (A) (A) (A) (A) (A) (A) (A) (A) (A)
                 (A) (A) (A) (A) (A) (A) (A) (A) (A) (A) (A) (A)
                 (A) (A) (A) (A) (A) (A) (A) (A) (A) (A) (A) (A)
                 (A) (A) (A) (A) (A) (A) (A) (A) (A) (A) (A) (A)
                 (A) (A) (A) (A) (A) (A) (A) (A) (A) (A) (A) (A)
                 (A) (A) (A) (A) (A) (A) (A) (A) (A) (A) (A) (A)
                 (A) (A) (A) (A) (A) (A) (A) (A) (A) (A) (A) (A)
                 (A) (A) (A) (A) (A) (A) (A) (A) (A) (A) (A) (A)
                 (A) (A) (A) (A) (A) (A) (A) (A) (A) (A) (A) (A)
                 (A) (A) (A) (A) (A) (A) (A) (A) (A) (A) (A) (A)
                 (A) (A) (A) (A) (A) (A) (A) (A) (A) (A) (A) (A)
                 (A) (A) (A) (A) (A) (A) (A) (A) (A) (A) (A) (A)
                 (A) (A) (A) (A) (A) (A) (A) (A) (A) (A) (A) (A)
                 (A) (A) (A) (A) (A) (A) (A) (A) (A) (A) (A) (A)
                 (A) (A) (A) (A) (A) (A) (A) (A) (A) (A) (A) (A)
                 (A) (A) (A) (A) (A) (A) (A) (A) (A) (A) (A) (A)
                 (A) (A) (A) (A) (A) (A) (A) (A) (A) (A) (A) (A)
                 (A) (A) (A) (A) (A) (A) (A) (A) (A) (A) (A) (A)
                 (A) (A) (A) (A) (A) (A) (A) (A) (A) (A) (A) (A)
                 (A) (A) (A) (A)
 The electronic state is 1-A.
 Alpha  occ. eigenvalues --  -19.26976 -19.25239 -19.23465 -19.22886 -19.21625
 Alpha  occ. eigenvalues --  -10.36015 -10.35472 -10.35330 -10.33582 -10.33302
 Alpha  occ. eigenvalues --  -10.32588 -10.30664 -10.29816 -10.29692 -10.28586
 Alpha  occ. eigenvalues --  -10.28319 -10.28036 -10.27776 -10.27407 -10.26249
 Alpha  occ. eigenvalues --   -1.16384  -1.15338  -1.13262  -1.12955  -1.10739
 Alpha  occ. eigenvalues --   -0.96783  -0.91590  -0.88849  -0.85896  -0.84440
 Alpha  occ. eigenvalues --   -0.80229  -0.79060  -0.76096  -0.75362  -0.71350
 Alpha  occ. eigenvalues --   -0.69586  -0.66964  -0.64407  -0.63304  -0.59495
 Alpha  occ. eigenvalues --   -0.58949  -0.57707  -0.57499  -0.55177  -0.54852
 Alpha  occ. eigenvalues --   -0.53996  -0.52933  -0.51925  -0.51175  -0.50853
 Alpha  occ. eigenvalues --   -0.49897  -0.49406  -0.49078  -0.48612  -0.48046
 Alpha  occ. eigenvalues --   -0.47078  -0.45954  -0.44995  -0.44607  -0.43822
 Alpha  occ. eigenvalues --   -0.43338  -0.42875  -0.42014  -0.41400  -0.39151
 Alpha  occ. eigenvalues --   -0.37772  -0.34940  -0.33814  -0.33328  -0.29717
 Alpha  occ. eigenvalues --   -0.29612  -0.26753
 Alpha virt. eigenvalues --   -0.06111   0.01708   0.04551   0.09298   0.09656
 Alpha virt. eigenvalues --    0.12521   0.14382   0.14567   0.15826   0.16942
 Alpha virt. eigenvalues --    0.17339   0.18521   0.18954   0.19509   0.20191
 Alpha virt. eigenvalues --    0.21141   0.21590   0.21890   0.22681   0.23552
 Alpha virt. eigenvalues --    0.23754   0.24022   0.26146   0.27253   0.28019
 Alpha virt. eigenvalues --    0.28934   0.29260   0.30628   0.31512   0.32644
 Alpha virt. eigenvalues --    0.34913   0.35412   0.38945   0.40257   0.40940
 Alpha virt. eigenvalues --    0.44756   0.45227   0.47282   0.50736   0.52082
 Alpha virt. eigenvalues --    0.53203   0.54587   0.54871   0.56069   0.57008
 Alpha virt. eigenvalues --    0.57327   0.58551   0.59661   0.59697   0.59921
 Alpha virt. eigenvalues --    0.60953   0.61258   0.61559   0.63084   0.63450
 Alpha virt. eigenvalues --    0.64321   0.66479   0.67293   0.67630   0.69194
 Alpha virt. eigenvalues --    0.69467   0.69946   0.71444   0.72233   0.73140
 Alpha virt. eigenvalues --    0.73855   0.75282   0.76030   0.76403   0.76953
 Alpha virt. eigenvalues --    0.77880   0.80078   0.81300   0.83024   0.84994
 Alpha virt. eigenvalues --    0.85598   0.87803   0.88419   0.89035   0.89737
 Alpha virt. eigenvalues --    0.91071   0.91542   0.91997   0.92308   0.92907
 Alpha virt. eigenvalues --    0.94033   0.94639   0.94944   0.95253   0.95709
 Alpha virt. eigenvalues --    0.98709   0.98820   0.99651   1.00590   1.01093
 Alpha virt. eigenvalues --    1.02978   1.03600   1.04011   1.04688   1.05745
 Alpha virt. eigenvalues --    1.07473   1.07861   1.09180   1.09854   1.11257
 Alpha virt. eigenvalues --    1.12786   1.15770   1.16290   1.18122   1.18270
 Alpha virt. eigenvalues --    1.19400   1.20843   1.22920   1.24135   1.24876
 Alpha virt. eigenvalues --    1.27408   1.29750   1.30918   1.33759   1.34685
 Alpha virt. eigenvalues --    1.35389   1.36634   1.39409   1.41431   1.42023
 Alpha virt. eigenvalues --    1.44488   1.44692   1.45252   1.46648   1.48789
 Alpha virt. eigenvalues --    1.49416   1.51289   1.51778   1.54982   1.57337
 Alpha virt. eigenvalues --    1.59498   1.60983   1.61578   1.66123   1.68165
 Alpha virt. eigenvalues --    1.68964   1.70878   1.73540   1.75869   1.76911
 Alpha virt. eigenvalues --    1.77988   1.79196   1.79885   1.80326   1.80860
 Alpha virt. eigenvalues --    1.82415   1.82947   1.84216   1.85171   1.86184
 Alpha virt. eigenvalues --    1.88578   1.89278   1.90655   1.91408   1.92778
 Alpha virt. eigenvalues --    1.94312   1.94649   1.95490   1.96850   1.97136
 Alpha virt. eigenvalues --    1.98646   1.99341   2.00399   2.02080   2.02569
 Alpha virt. eigenvalues --    2.03566   2.06491   2.07954   2.08066   2.11067
 Alpha virt. eigenvalues --    2.11379   2.11988   2.14240   2.15074   2.19701
 Alpha virt. eigenvalues --    2.20585   2.22620   2.25533   2.26755   2.26895
 Alpha virt. eigenvalues --    2.27412   2.29308   2.30289   2.31902   2.33524
 Alpha virt. eigenvalues --    2.34481   2.36341   2.38594   2.39361   2.39936
 Alpha virt. eigenvalues --    2.41799   2.42087   2.42955   2.45418   2.46033
 Alpha virt. eigenvalues --    2.46956   2.49463   2.51764   2.52006   2.53113
 Alpha virt. eigenvalues --    2.56903   2.57975   2.59374   2.61081   2.63985
 Alpha virt. eigenvalues --    2.66698   2.69902   2.71311   2.73306   2.76308
 Alpha virt. eigenvalues --    2.77897   2.79159   2.80010   2.81697   2.83066
 Alpha virt. eigenvalues --    2.83934   2.89008   2.90123   2.95085   2.97501
 Alpha virt. eigenvalues --    3.00314   3.02095   3.04225   3.04991   3.07820
 Alpha virt. eigenvalues --    3.13300   3.16891   3.21552   3.29913   3.44005
 Alpha virt. eigenvalues --    3.54416   3.89633   4.02827   4.08201   4.10981
 Alpha virt. eigenvalues --    4.13364   4.18802   4.22287   4.26257   4.29347
 Alpha virt. eigenvalues --    4.30426   4.32390   4.37821   4.39961   4.50052
 Alpha virt. eigenvalues --    4.53887   4.58492   4.64382   4.71935   4.91046
 Alpha virt. eigenvalues --    5.17070
          Condensed to atoms (all electrons):
               1          2          3          4          5          6
     1  O    8.009904   0.549763  -0.063083  -0.002970  -0.077478  -0.002086
     2  C    0.549763   4.919086   0.214488  -0.069771   0.216392  -0.042301
     3  C   -0.063083   0.214488   4.931636   0.586788  -0.066651   0.002308
     4  O   -0.002970  -0.069771   0.586788   7.986677   0.003651  -0.000007
     5  C   -0.077478   0.216392  -0.066651   0.003651   4.856493   0.272054
     6  O   -0.002086  -0.042301   0.002308  -0.000007   0.272054   8.208761
     7  C    0.000265  -0.006940   0.000175  -0.000002  -0.034018   0.231553
     8  C    0.004168  -0.033886  -0.028754  -0.000103   0.521708  -0.058894
     9  C   -0.000057  -0.016484  -0.005909   0.003835  -0.000731   0.002692
    10  C    0.004511  -0.090919   0.149191  -0.083622  -0.001467   0.000008
    11  C   -0.000034   0.004654  -0.060928  -0.004344  -0.000684   0.000000
    12  O    0.000000   0.000034   0.003344  -0.008497   0.000001  -0.000000
    13  C   -0.000000   0.000057   0.009034   0.000305  -0.000044  -0.000000
    14  C   -0.000000   0.000001  -0.000088   0.000008  -0.000000   0.000000
    15  O    0.000000  -0.000000   0.000000  -0.000000   0.000000  -0.000000
    16  C   -0.000000   0.000000  -0.000000   0.000000   0.000000   0.000000
    17  C    0.000000  -0.000000   0.000000  -0.000000  -0.000000   0.000000
    18  C    0.000000  -0.000000   0.000001  -0.000000   0.000001  -0.000000
    19  C    0.000000  -0.000049  -0.000958  -0.000023  -0.000200   0.000000
    20  C   -0.000001  -0.000512   0.011122  -0.000020   0.006917  -0.000073
    21  H   -0.001064   0.001657  -0.000102   0.000001  -0.000318  -0.032997
    22  H    0.006523   0.001014  -0.000029   0.000001  -0.003391  -0.031509
    23  H    0.000654   0.000256   0.000018  -0.000000   0.001936  -0.035142
    24  H   -0.000072   0.005565  -0.000578   0.000001  -0.028805   0.001023
    25  H   -0.000000   0.000008  -0.000309   0.000494  -0.000000   0.000000
    26  H    0.000000  -0.000000  -0.000002  -0.000000  -0.000000   0.000000
    27  H   -0.000000   0.000000   0.000002  -0.000000  -0.000000   0.000000
    28  H   -0.000000  -0.000000   0.000000   0.000000   0.000000  -0.000000
    29  H   -0.000000   0.000000  -0.000000   0.000000  -0.000000   0.000000
    30  H   -0.000000  -0.000000   0.000000   0.000000   0.000000  -0.000000
    31  H   -0.000000   0.000000  -0.000000  -0.000000  -0.000000  -0.000000
    32  H   -0.000000  -0.000000   0.000000  -0.000000   0.000000   0.000000
    33  H    0.000000   0.000000  -0.000000   0.000000   0.000000  -0.000000
    34  H   -0.000000   0.000029  -0.000119   0.000000   0.000302  -0.000003
               7          8          9         10         11         12
     1  O    0.000265   0.004168  -0.000057   0.004511  -0.000034   0.000000
     2  C   -0.006940  -0.033886  -0.016484  -0.090919   0.004654   0.000034
     3  C    0.000175  -0.028754  -0.005909   0.149191  -0.060928   0.003344
     4  O   -0.000002  -0.000103   0.003835  -0.083622  -0.004344  -0.008497
     5  C   -0.034018   0.521708  -0.000731  -0.001467  -0.000684   0.000001
     6  O    0.231553  -0.058894   0.002692   0.000008   0.000000  -0.000000
     7  C    4.894463   0.003347  -0.000066  -0.000032  -0.000000   0.000000
     8  C    0.003347   5.254665   0.348736  -0.041327   0.012074  -0.000053
     9  C   -0.000066   0.348736   4.716498   0.468146  -0.028466   0.002433
    10  C   -0.000032  -0.041327   0.468146   5.375428   0.401584  -0.069004
    11  C   -0.000000   0.012074  -0.028466   0.401584   4.881696   0.346360
    12  O    0.000000  -0.000053   0.002433  -0.069004   0.346360   8.169769
    13  C    0.000000   0.000467  -0.040802  -0.082073   0.341254  -0.085354
    14  C    0.000000  -0.000002  -0.000061   0.007254  -0.049254  -0.002981
    15  O   -0.000000   0.000000  -0.000005  -0.000046   0.002565   0.000090
    16  C    0.000000   0.000002  -0.000165  -0.000015   0.000454   0.000002
    17  C   -0.000000  -0.000000   0.000002   0.000013  -0.000399   0.000002
    18  C    0.000000  -0.000226   0.004990   0.000443   0.007434  -0.000061
    19  C   -0.000000   0.006933   0.000487  -0.039786   0.016732   0.002349
    20  C    0.000003  -0.065821   0.481447  -0.030619  -0.085820   0.000420
    21  H    0.370011   0.000823  -0.000005  -0.000009   0.000000  -0.000000
    22  H    0.378414  -0.000099   0.000011   0.000000   0.000000  -0.000000
    23  H    0.378257  -0.000100   0.000001  -0.000001  -0.000000  -0.000000
    24  H   -0.000210   0.346211  -0.040922   0.004985  -0.000074   0.000000
    25  H   -0.000000   0.000004   0.000039   0.008119  -0.020043   0.244663
    26  H   -0.000000   0.000000   0.000042  -0.000213   0.004144   0.001189
    27  H    0.000000   0.000000   0.000025  -0.000199  -0.001349   0.002016
    28  H    0.000000  -0.000000   0.000001   0.000000   0.000006   0.000000
    29  H    0.000000   0.000000   0.000000  -0.000000  -0.000007   0.000000
    30  H    0.000000  -0.000000  -0.000042   0.000007  -0.000204  -0.000008
    31  H    0.000000   0.000000   0.000000  -0.000000   0.000006  -0.000000
    32  H    0.000000   0.000001  -0.000232   0.000044  -0.000304   0.000001
    33  H   -0.000000   0.000000   0.000080   0.000000  -0.000012   0.000000
    34  H    0.000000  -0.006209  -0.041763   0.003786   0.000629   0.000003
              13         14         15         16         17         18
     1  O   -0.000000  -0.000000   0.000000  -0.000000   0.000000   0.000000
     2  C    0.000057   0.000001  -0.000000   0.000000  -0.000000  -0.000000
     3  C    0.009034  -0.000088   0.000000  -0.000000   0.000000   0.000001
     4  O    0.000305   0.000008  -0.000000   0.000000  -0.000000  -0.000000
     5  C   -0.000044  -0.000000   0.000000   0.000000  -0.000000   0.000001
     6  O   -0.000000   0.000000  -0.000000   0.000000   0.000000  -0.000000
     7  C    0.000000   0.000000  -0.000000   0.000000  -0.000000   0.000000
     8  C    0.000467  -0.000002   0.000000   0.000002  -0.000000  -0.000226
     9  C   -0.040802  -0.000061  -0.000005  -0.000165   0.000002   0.004990
    10  C   -0.082073   0.007254  -0.000046  -0.000015   0.000013   0.000443
    11  C    0.341254  -0.049254   0.002565   0.000454  -0.000399   0.007434
    12  O   -0.085354  -0.002981   0.000090   0.000002   0.000002  -0.000061
    13  C    5.208492   0.262089  -0.020062  -0.005584  -0.006899  -0.047970
    14  C    0.262089   4.999844   0.248698  -0.037626  -0.003758  -0.031607
    15  O   -0.020062   0.248698   8.220298   0.254009  -0.050447  -0.044434
    16  C   -0.005584  -0.037626   0.254009   4.740488   0.354849   0.337151
    17  C   -0.006899  -0.003758  -0.050447   0.354849   5.173345  -0.060928
    18  C   -0.047970  -0.031607  -0.044434   0.337151  -0.060928   5.243500
    19  C    0.570101  -0.039815  -0.016757  -0.019521  -0.007121   0.337703
    20  C   -0.032982   0.009036   0.000072   0.002676   0.000346  -0.058527
    21  H    0.000000  -0.000000  -0.000000  -0.000000   0.000000   0.000000
    22  H   -0.000000   0.000000  -0.000000   0.000000  -0.000000   0.000000
    23  H    0.000000   0.000000  -0.000000   0.000000   0.000000  -0.000000
    24  H    0.000010  -0.000000  -0.000000   0.000000  -0.000000  -0.000008
    25  H   -0.023787   0.014785  -0.000098   0.000030  -0.000002  -0.000005
    26  H   -0.058544   0.360399  -0.037247  -0.008345   0.007633   0.001404
    27  H   -0.038055   0.374977  -0.033094   0.006043  -0.000224  -0.000458
    28  H    0.000263   0.005596  -0.040825   0.395254  -0.050375  -0.044054
    29  H    0.000305  -0.000716   0.001768  -0.027835   0.372732   0.005299
    30  H    0.002170   0.002894  -0.002481  -0.029105   0.375090  -0.008911
    31  H    0.000140  -0.000025   0.002876  -0.022090   0.361549  -0.000347
    32  H   -0.003754   0.000948   0.001122  -0.026507   0.005438   0.357437
    33  H    0.004810   0.000142   0.003361  -0.029456  -0.000758   0.353298
    34  H    0.005143  -0.000144   0.000005   0.000179  -0.000010  -0.006898
              19         20         21         22         23         24
     1  O    0.000000  -0.000001  -0.001064   0.006523   0.000654  -0.000072
     2  C   -0.000049  -0.000512   0.001657   0.001014   0.000256   0.005565
     3  C   -0.000958   0.011122  -0.000102  -0.000029   0.000018  -0.000578
     4  O   -0.000023  -0.000020   0.000001   0.000001  -0.000000   0.000001
     5  C   -0.000200   0.006917  -0.000318  -0.003391   0.001936  -0.028805
     6  O    0.000000  -0.000073  -0.032997  -0.031509  -0.035142   0.001023
     7  C   -0.000000   0.000003   0.370011   0.378414   0.378257  -0.000210
     8  C    0.006933  -0.065821   0.000823  -0.000099  -0.000100   0.346211
     9  C    0.000487   0.481447  -0.000005   0.000011   0.000001  -0.040922
    10  C   -0.039786  -0.030619  -0.000009   0.000000  -0.000001   0.004985
    11  C    0.016732  -0.085820   0.000000   0.000000  -0.000000  -0.000074
    12  O    0.002349   0.000420  -0.000000  -0.000000  -0.000000   0.000000
    13  C    0.570101  -0.032982   0.000000  -0.000000   0.000000   0.000010
    14  C   -0.039815   0.009036  -0.000000   0.000000   0.000000  -0.000000
    15  O   -0.016757   0.000072  -0.000000  -0.000000  -0.000000  -0.000000
    16  C   -0.019521   0.002676  -0.000000   0.000000   0.000000   0.000000
    17  C   -0.007121   0.000346   0.000000  -0.000000   0.000000  -0.000000
    18  C    0.337703  -0.058527   0.000000   0.000000  -0.000000  -0.000008
    19  C    4.712478   0.459600  -0.000000  -0.000000   0.000000   0.000319
    20  C    0.459600   5.253321  -0.000000  -0.000000   0.000000  -0.008643
    21  H   -0.000000  -0.000000   0.576066  -0.037245  -0.031180   0.000047
    22  H   -0.000000  -0.000000  -0.037245   0.528446  -0.031111   0.000021
    23  H    0.000000   0.000000  -0.031180  -0.031111   0.554231  -0.000063
    24  H    0.000319  -0.008643   0.000047   0.000021  -0.000063   0.556781
    25  H   -0.000008  -0.000050  -0.000000   0.000000   0.000000  -0.000000
    26  H   -0.005178  -0.000187   0.000000  -0.000000   0.000000  -0.000000
    27  H    0.000277  -0.000096  -0.000000   0.000000  -0.000000  -0.000000
    28  H    0.004101  -0.000126  -0.000000   0.000000  -0.000000  -0.000000
    29  H   -0.000033   0.000002  -0.000000   0.000000   0.000000   0.000000
    30  H    0.005953  -0.000068  -0.000000   0.000000  -0.000000  -0.000000
    31  H    0.000093  -0.000045  -0.000000   0.000000  -0.000000   0.000000
    32  H   -0.024538  -0.001388  -0.000000   0.000000  -0.000000  -0.000000
    33  H   -0.034473  -0.005406   0.000000  -0.000000   0.000000  -0.000001
    34  H   -0.041139   0.358316  -0.000000  -0.000000  -0.000000   0.005541
              25         26         27         28         29         30
     1  O   -0.000000   0.000000  -0.000000  -0.000000  -0.000000  -0.000000
     2  C    0.000008  -0.000000   0.000000  -0.000000   0.000000  -0.000000
     3  C   -0.000309  -0.000002   0.000002   0.000000  -0.000000   0.000000
     4  O    0.000494  -0.000000  -0.000000   0.000000   0.000000   0.000000
     5  C   -0.000000  -0.000000  -0.000000   0.000000  -0.000000   0.000000
     6  O    0.000000   0.000000   0.000000  -0.000000   0.000000  -0.000000
     7  C   -0.000000  -0.000000   0.000000   0.000000   0.000000   0.000000
     8  C    0.000004   0.000000   0.000000  -0.000000   0.000000  -0.000000
     9  C    0.000039   0.000042   0.000025   0.000001   0.000000  -0.000042
    10  C    0.008119  -0.000213  -0.000199   0.000000  -0.000000   0.000007
    11  C   -0.020043   0.004144  -0.001349   0.000006  -0.000007  -0.000204
    12  O    0.244663   0.001189   0.002016   0.000000   0.000000  -0.000008
    13  C   -0.023787  -0.058544  -0.038055   0.000263   0.000305   0.002170
    14  C    0.014785   0.360399   0.374977   0.005596  -0.000716   0.002894
    15  O   -0.000098  -0.037247  -0.033094  -0.040825   0.001768  -0.002481
    16  C    0.000030  -0.008345   0.006043   0.395254  -0.027835  -0.029105
    17  C   -0.000002   0.007633  -0.000224  -0.050375   0.372732   0.375090
    18  C   -0.000005   0.001404  -0.000458  -0.044054   0.005299  -0.008911
    19  C   -0.000008  -0.005178   0.000277   0.004101  -0.000033   0.005953
    20  C   -0.000050  -0.000187  -0.000096  -0.000126   0.000002  -0.000068
    21  H   -0.000000   0.000000  -0.000000  -0.000000  -0.000000  -0.000000
    22  H    0.000000  -0.000000   0.000000   0.000000   0.000000   0.000000
    23  H    0.000000   0.000000  -0.000000  -0.000000   0.000000  -0.000000
    24  H   -0.000000  -0.000000  -0.000000  -0.000000   0.000000  -0.000000
    25  H    0.342980   0.001604   0.003690  -0.000001   0.000000  -0.000014
    26  H    0.001604   0.641811  -0.053913  -0.000234  -0.000136  -0.001161
    27  H    0.003690  -0.053913   0.575988  -0.000094  -0.000030   0.000127
    28  H   -0.000001  -0.000234  -0.000094   0.588960  -0.003581   0.004783
    29  H    0.000000  -0.000136  -0.000030  -0.003581   0.541058  -0.029275
    30  H   -0.000014  -0.001161   0.000127   0.004783  -0.029275   0.551637
    31  H    0.000000  -0.000225   0.000003  -0.002006  -0.024450  -0.028195
    32  H    0.000000  -0.000007   0.000067  -0.006136  -0.000145   0.000073
    33  H    0.000000   0.000107  -0.000004   0.000571  -0.000065   0.000039
    34  H   -0.000000   0.000003   0.000003  -0.000001  -0.000000   0.000007
              31         32         33         34
     1  O   -0.000000  -0.000000   0.000000  -0.000000
     2  C    0.000000  -0.000000   0.000000   0.000029
     3  C   -0.000000   0.000000  -0.000000  -0.000119
     4  O   -0.000000  -0.000000   0.000000   0.000000
     5  C   -0.000000   0.000000   0.000000   0.000302
     6  O   -0.000000   0.000000  -0.000000  -0.000003
     7  C    0.000000   0.000000  -0.000000   0.000000
     8  C    0.000000   0.000001   0.000000  -0.006209
     9  C    0.000000  -0.000232   0.000080  -0.041763
    10  C   -0.000000   0.000044   0.000000   0.003786
    11  C    0.000006  -0.000304  -0.000012   0.000629
    12  O   -0.000000   0.000001   0.000000   0.000003
    13  C    0.000140  -0.003754   0.004810   0.005143
    14  C   -0.000025   0.000948   0.000142  -0.000144
    15  O    0.002876   0.001122   0.003361   0.000005
    16  C   -0.022090  -0.026507  -0.029456   0.000179
    17  C    0.361549   0.005438  -0.000758  -0.000010
    18  C   -0.000347   0.357437   0.353298  -0.006898
    19  C    0.000093  -0.024538  -0.034473  -0.041139
    20  C   -0.000045  -0.001388  -0.005406   0.358316
    21  H   -0.000000  -0.000000   0.000000  -0.000000
    22  H    0.000000   0.000000  -0.000000  -0.000000
    23  H   -0.000000  -0.000000   0.000000  -0.000000
    24  H    0.000000  -0.000000  -0.000001   0.005541
    25  H    0.000000   0.000000   0.000000  -0.000000
    26  H   -0.000225  -0.000007   0.000107   0.000003
    27  H    0.000003   0.000067  -0.000004   0.000003
    28  H   -0.002006  -0.006136   0.000571  -0.000001
    29  H   -0.024450  -0.000145  -0.000065  -0.000000
    30  H   -0.028195   0.000073   0.000039   0.000007
    31  H    0.557116  -0.000121   0.001422  -0.000001
    32  H   -0.000121   0.551163  -0.030046   0.000699
    33  H    0.001422  -0.030046   0.578278   0.004488
    34  H   -0.000001   0.000699   0.004488   0.579940
 Mulliken charges:
               1
     1  O   -0.428943
     2  C    0.347859
     3  C    0.319403
     4  O   -0.412401
     5  C    0.334332
     6  O   -0.515388
     7  C   -0.215219
     8  C   -0.263666
     9  C    0.146246
    10  C    0.015814
    11  C    0.232332
    12  O   -0.606719
    13  C    0.041270
    14  C   -0.120594
    15  O   -0.489369
    16  C    0.115111
    17  C   -0.470078
    18  C   -0.344227
    19  C    0.112473
    20  C   -0.292895
    21  H    0.154315
    22  H    0.188955
    23  H    0.162245
    24  H    0.158873
    25  H    0.427899
    26  H    0.147056
    27  H    0.164300
    28  H    0.147897
    29  H    0.165110
    30  H    0.156684
    31  H    0.154300
    32  H    0.176186
    33  H    0.153623
    34  H    0.137214
 Sum of Mulliken charges =  -0.00000
 Mulliken charges with hydrogens summed into heavy atoms:
               1
     1  O   -0.428943
     2  C    0.347859
     3  C    0.319403
     4  O   -0.412401
     5  C    0.334332
     6  O   -0.515388
     7  C    0.290296
     8  C   -0.104792
     9  C    0.146246
    10  C    0.015814
    11  C    0.232332
    12  O   -0.178821
    13  C    0.041270
    14  C    0.190762
    15  O   -0.489369
    16  C    0.263008
    17  C    0.006015
    18  C   -0.014418
    19  C    0.112473
    20  C   -0.155681
 Electronic spatial extent (au):  <R**2>=           6622.1507
 Charge=             -0.0000 electrons
 Dipole moment (field-independent basis, Debye):
    X=              3.8572    Y=             -3.9003    Z=             -0.3390  Tot=              5.4959
 Quadrupole moment (field-independent basis, Debye-Ang):
   XX=           -109.8136   YY=           -116.5123   ZZ=           -114.3852
   XY=             10.0503   XZ=              8.6815   YZ=              0.3007
 Traceless Quadrupole moment (field-independent basis, Debye-Ang):
   XX=              3.7568   YY=             -2.9419   ZZ=             -0.8149
   XY=             10.0503   XZ=              8.6815   YZ=              0.3007
 Octapole moment (field-independent basis, Debye-Ang**2):
  XXX=            -51.0325  YYY=             -8.7083  ZZZ=              0.8325  XYY=             54.5569
  XXY=            -46.4951  XXZ=             -3.2247  XZZ=             -7.8404  YZZ=              9.1782
  YYZ=             -5.7274  XYZ=              0.2402
 Hexadecapole moment (field-independent basis, Debye-Ang**3):
 XXXX=          -6424.3076 YYYY=          -1463.4205 ZZZZ=           -302.0185 XXXY=            113.7791
 XXXZ=            188.6787 YYYX=            105.4729 YYYZ=             -3.4628 ZZZX=            -20.9455
 ZZZY=              0.7776 XXYY=          -1348.8078 XXZZ=          -1167.6025 YYZZ=           -291.3642
 XXYZ=             13.1155 YYXZ=              1.2637 ZZXY=             -5.3378
 N-N= 1.531583952096D+03 E-N=-5.291995788388D+03  KE= 9.471161184972D+02
 1\1\GINC-C091\SP\RCAM-B3LYP TD-FC\6-31G(d)\C15H14O5\XYCAO\28-Dec-2023\
 0\\# td=(nstates=20,root=20) cam-b3lyp/6-31g(d)\\Title\\0,1\O,0,-4.121
 363,1.186332,0.487385\C,0,-3.101368,0.572014,0.226602\C,0,-1.769218,1.
 377634,0.051106\O,0,-1.8643,2.590792,0.031026\C,0,-3.048684,-0.900017,
 0.07583\O,0,-4.150684,-1.680643,0.195479\C,0,-5.430151,-1.204755,-0.25
 1053\C,0,-1.843487,-1.504618,-0.070064\C,0,-0.571225,-0.802705,-0.1240
 07\C,0,-0.509933,0.615746,-0.069459\C,0,0.753175,1.238826,-0.131475\O,
 0,0.805489,2.590971,-0.057514\C,0,1.935671,0.47684,-0.266416\C,0,3.283
 728,1.172268,-0.316161\O,0,4.365811,0.325388,-0.647078\C,0,4.357002,-0
 .948214,0.013719\C,0,4.47529,-0.829243,1.535488\C,0,3.122785,-1.729919
 ,-0.456129\C,0,1.85506,-0.915994,-0.312502\C,0,0.60526,-1.543189,-0.23
 9745\H,0,-5.35536,-0.73185,-1.236212\H,0,-5.861458,-0.496843,0.456996\
 H,0,-6.051848,-2.099807,-0.324891\H,0,-1.822814,-2.589332,-0.134849\H,
 0,1.726268,2.891444,-0.087797\H,0,3.474259,1.681881,0.647787\H,0,3.290
 206,1.948672,-1.094879\H,0,5.257984,-1.438895,-0.368099\H,0,5.322922,-
 0.187972,1.798238\H,0,3.569559,-0.414745,1.991245\H,0,4.644715,-1.8177
 72,1.976705\H,0,3.261986,-1.992516,-1.513541\H,0,3.029298,-2.674552,0.
 093595\H,0,0.551224,-2.628462,-0.27308\\Version=ES64L-G16RevA.03\State
 =1-A\HF=-955.6467478\RMSD=6.644e-09\PG=C01 [X(C15H14O5)]\\@


 NOTHING WILL BE ATTEMPTED IF ALL POSSIBLE OBJECTIONS
 MUST FIRST BE OVERCOME.

                               -- THE GOLDEN PRINCIPLE,
                    PAUL DICKSON'S "THE OFFICIAL RULES"
 Job cpu time:       0 days  0 hours 48 minutes 54.4 seconds.
 Elapsed time:       0 days  0 hours  1 minutes 32.1 seconds.
 File lengths (MBytes):  RWF=   1321 Int=      0 D2E=      0 Chk=     82 Scr=      1
 Normal termination of Gaussian 16 at Thu Dec 28 13:30:34 2023.
