 Entering Gaussian System, Link 0=g16
 Input=molecule_10_1_ECD.com
 Output=molecule_10_1_ECD.log
 Initial command:
 /share/apps/g16/A03/l1.exe "/tmp/954228.tmpdir/scr/Gau-39525.inp" -scrdir="/tmp/954228.tmpdir/scr/"
 Entering Link 1 = /share/apps/g16/A03/l1.exe PID=     39526.
  
 Copyright (c) 1988,1990,1992,1993,1995,1998,2003,2009,2016,
            Gaussian, Inc.  All Rights Reserved.
  
 This is part of the Gaussian(R) 16 program.  It is based on
 the Gaussian(R) 09 system (copyright 2009, Gaussian, Inc.),
 the Gaussian(R) 03 system (copyright 2003, Gaussian, Inc.),
 the Gaussian(R) 98 system (copyright 1998, Gaussian, Inc.),
 the Gaussian(R) 94 system (copyright 1995, Gaussian, Inc.),
 the Gaussian 92(TM) system (copyright 1992, Gaussian, Inc.),
 the Gaussian 90(TM) system (copyright 1990, Gaussian, Inc.),
 the Gaussian 88(TM) system (copyright 1988, Gaussian, Inc.),
 the Gaussian 86(TM) system (copyright 1986, Carnegie Mellon
 University), and the Gaussian 82(TM) system (copyright 1983,
 Carnegie Mellon University). Gaussian is a federally registered
 trademark of Gaussian, Inc.
  
 This software contains proprietary and confidential information,
 including trade secrets, belonging to Gaussian, Inc.
  
 This software is provided under written license and may be
 used, copied, transmitted, or stored only in accord with that
 written license.
  
 The following legend is applicable only to US Government
 contracts under FAR:
  
                    RESTRICTED RIGHTS LEGEND
  
 Use, reproduction and disclosure by the US Government is
 subject to restrictions as set forth in subparagraphs (a)
 and (c) of the Commercial Computer Software - Restricted
 Rights clause in FAR 52.227-19.
  
 Gaussian, Inc.
 340 Quinnipiac St., Bldg. 40, Wallingford CT 06492
  
  
 ---------------------------------------------------------------
 Warning -- This program may not be used in any manner that
 competes with the business of Gaussian, Inc. or will provide
 assistance to any competitor of Gaussian, Inc.  The licensee
 of this program is prohibited from giving any competitor of
 Gaussian, Inc. access to this program.  By using this program,
 the user acknowledges that Gaussian, Inc. is engaged in the
 business of creating and licensing software in the field of
 computational chemistry and represents and warrants to the
 licensee that it is not a competitor of Gaussian, Inc. and that
 it will not use this program in any manner prohibited above.
 ---------------------------------------------------------------
  

 Cite this work as:
 Gaussian 16, Revision A.03,
 M. J. Frisch, G. W. Trucks, H. B. Schlegel, G. E. Scuseria, 
 M. A. Robb, J. R. Cheeseman, G. Scalmani, V. Barone, 
 G. A. Petersson, H. Nakatsuji, X. Li, M. Caricato, A. V. Marenich, 
 J. Bloino, B. G. Janesko, R. Gomperts, B. Mennucci, H. P. Hratchian, 
 J. V. Ortiz, A. F. Izmaylov, J. L. Sonnenberg, D. Williams-Young, 
 F. Ding, F. Lipparini, F. Egidi, J. Goings, B. Peng, A. Petrone, 
 T. Henderson, D. Ranasinghe, V. G. Zakrzewski, J. Gao, N. Rega, 
 G. Zheng, W. Liang, M. Hada, M. Ehara, K. Toyota, R. Fukuda, 
 J. Hasegawa, M. Ishida, T. Nakajima, Y. Honda, O. Kitao, H. Nakai, 
 T. Vreven, K. Throssell, J. A. Montgomery, Jr., J. E. Peralta, 
 F. Ogliaro, M. J. Bearpark, J. J. Heyd, E. N. Brothers, K. N. Kudin, 
 V. N. Staroverov, T. A. Keith, R. Kobayashi, J. Normand, 
 K. Raghavachari, A. P. Rendell, J. C. Burant, S. S. Iyengar, 
 J. Tomasi, M. Cossi, J. M. Millam, M. Klene, C. Adamo, R. Cammi, 
 J. W. Ochterski, R. L. Martin, K. Morokuma, O. Farkas, 
 J. B. Foresman, and D. J. Fox, Gaussian, Inc., Wallingford CT, 2016.
 
 ******************************************
 Gaussian 16:  ES64L-G16RevA.03 25-Dec-2016
                28-Dec-2023 
 ******************************************
 %nprocs=32
 Will use up to   32 processors via shared memory.
 %chk=molecule_10_1_ECD.chk
 %mem=10GB
 --------------------------------------------
 # td=(nstates=20,root=20) cam-b3lyp/6-31g(d)
 --------------------------------------------
 1/38=1,172=1/1;
 2/12=2,17=6,18=5,40=1/2;
 3/5=1,6=6,7=1,11=9,25=1,30=1,74=-40/1,2,3,8;
 4//1;
 5/5=2,38=5/2;
 8/6=1,10=2,107=20,108=20/1;
 9/8=20,41=20,42=1,70=2/14;
 6/7=2,8=2,9=2,10=2/1;
 99/5=1,9=1/99;
 -----
 Title
 -----
 Symbolic Z-matrix:
 Charge =  0 Multiplicity = 1
 C                    -6.14792  -4.02732  -1.14918 
 O                    -4.81121  -3.8563   -0.69629 
 C                    -4.29512  -2.60098  -0.66644 
 C                    -4.97575  -1.45438  -1.04475 
 C                    -4.32659  -0.19827  -0.96971 
 C                    -2.97896  -0.11887  -0.49231 
 C                    -2.31131   1.12464  -0.40917 
 C                    -2.96469   2.28712  -0.83465 
 C                    -2.2764    3.59337  -0.78773 
 O                    -2.7959    4.63803  -1.1434 
 C                    -4.29409   2.21254  -1.31272 
 C                    -4.95983   1.01038  -1.36999 
 C                    -2.31595  -1.32328  -0.12563 
 O                    -1.00292  -1.32734   0.23755 
 C                    -0.34995  -0.12261   0.71712 
 C                     1.10989  -0.29326   0.30053 
 C                     1.32713  -0.46517  -1.08808 
 C                     2.59187  -0.6214   -1.58879 
 C                     3.71787  -0.60661  -0.72528 
 C                     3.52482  -0.4396    0.68901 
 C                     4.68498  -0.43197   1.5097 
 C                     5.93784  -0.59204   0.96091 
 C                     6.12676  -0.77026  -0.42573 
 O                     7.36795  -0.95381  -0.97169 
 C                     5.02446  -0.76619  -1.26748 
 O                     5.14348  -0.97616  -2.61997 
 C                     5.8434    0.03591  -3.35362 
 C                     2.17757  -0.28566   1.19323 
 C                     1.88729  -0.14249   2.65887 
 O                     2.75754  -0.09133   3.52812 
 C                    -0.54823  -0.07705   2.22132 
 O                    -1.85647  -0.02278   2.53231 
 C                    -2.22351   0.00027   3.91204 
 C                     0.48377  -0.07437   3.08223 
 C                    -0.9473    1.16869   0.12483 
 C                    -0.24879   2.32532   0.18831 
 C                    -0.81796   3.60367  -0.25744 
 O                    -0.19407   4.65065  -0.21154 
 C                    -2.95473  -2.53676  -0.20479 
 H                    -6.34754  -5.09818  -1.08834 
 H                    -6.26341  -3.69214  -2.18757 
 H                    -6.85789  -3.48584  -0.51132 
 H                    -5.99569  -1.49338  -1.40781 
 H                    -4.76926   3.1358   -1.62828 
 H                    -5.9828    0.96811  -1.735 
 H                     0.47351  -0.48123  -1.75799 
 H                     2.75639  -0.76473  -2.65032 
 H                     4.57321  -0.30142   2.57484 
 H                     6.81159  -0.58908   1.61159 
 H                     8.02527  -0.93654  -0.25881 
 H                     5.77609  -0.25658  -4.40391 
 H                     5.36749   1.01555  -3.21674 
 H                     6.89346   0.0913   -3.05326 
 H                    -1.85673  -0.89535   4.42576 
 H                    -3.31342   0.01935   3.92703 
 H                    -1.82718   0.89575   4.40391 
 H                     0.34473  -0.01315   4.15502 
 H                     0.76222   2.3638    0.58186 
 H                    -2.4407   -3.4501    0.071 
 
 Stoichiometry    C31H20O8
 Framework group  C1[X(C31H20O8)]
 Deg. of freedom   171
 Full point group                 C1      NOp   1
 Largest Abelian subgroup         C1      NOp   1
 Largest concise Abelian subgroup C1      NOp   1
                         Standard orientation:                         
 ---------------------------------------------------------------------
 Center     Atomic      Atomic             Coordinates (Angstroms)
 Number     Number       Type             X           Y           Z
 ---------------------------------------------------------------------
      1          6           0       -6.147923   -4.027322   -1.149179
      2          8           0       -4.811209   -3.856297   -0.696291
      3          6           0       -4.295121   -2.600981   -0.666438
      4          6           0       -4.975753   -1.454380   -1.044751
      5          6           0       -4.326586   -0.198273   -0.969711
      6          6           0       -2.978962   -0.118872   -0.492305
      7          6           0       -2.311311    1.124643   -0.409172
      8          6           0       -2.964689    2.287123   -0.834649
      9          6           0       -2.276400    3.593374   -0.787725
     10          8           0       -2.795901    4.638031   -1.143401
     11          6           0       -4.294087    2.212544   -1.312723
     12          6           0       -4.959825    1.010375   -1.369987
     13          6           0       -2.315945   -1.323280   -0.125627
     14          8           0       -1.002917   -1.327343    0.237547
     15          6           0       -0.349946   -0.122610    0.717117
     16          6           0        1.109891   -0.293255    0.300529
     17          6           0        1.327128   -0.465169   -1.088076
     18          6           0        2.591870   -0.621401   -1.588793
     19          6           0        3.717871   -0.606607   -0.725275
     20          6           0        3.524816   -0.439598    0.689012
     21          6           0        4.684978   -0.431969    1.509700
     22          6           0        5.937839   -0.592035    0.960914
     23          6           0        6.126758   -0.770260   -0.425726
     24          8           0        7.367954   -0.953807   -0.971693
     25          6           0        5.024456   -0.766188   -1.267481
     26          8           0        5.143484   -0.976162   -2.619970
     27          6           0        5.843404    0.035909   -3.353622
     28          6           0        2.177567   -0.285655    1.193226
     29          6           0        1.887292   -0.142491    2.658866
     30          8           0        2.757541   -0.091334    3.528115
     31          6           0       -0.548229   -0.077046    2.221315
     32          8           0       -1.856471   -0.022780    2.532313
     33          6           0       -2.223508    0.000270    3.912037
     34          6           0        0.483768   -0.074365    3.082228
     35          6           0       -0.947300    1.168686    0.124833
     36          6           0       -0.248793    2.325324    0.188311
     37          6           0       -0.817963    3.603674   -0.257437
     38          8           0       -0.194073    4.650646   -0.211540
     39          6           0       -2.954729   -2.536765   -0.204794
     40          1           0       -6.347544   -5.098179   -1.088340
     41          1           0       -6.263405   -3.692136   -2.187570
     42          1           0       -6.857889   -3.485841   -0.511320
     43          1           0       -5.995693   -1.493375   -1.407814
     44          1           0       -4.769260    3.135799   -1.628275
     45          1           0       -5.982798    0.968110   -1.735001
     46          1           0        0.473513   -0.481225   -1.757989
     47          1           0        2.756385   -0.764726   -2.650324
     48          1           0        4.573210   -0.301415    2.574835
     49          1           0        6.811589   -0.589080    1.611590
     50          1           0        8.025272   -0.936542   -0.258806
     51          1           0        5.776085   -0.256575   -4.403912
     52          1           0        5.367487    1.015546   -3.216741
     53          1           0        6.893456    0.091303   -3.053257
     54          1           0       -1.856726   -0.895347    4.425756
     55          1           0       -3.313421    0.019349    3.927028
     56          1           0       -1.827176    0.895746    4.403907
     57          1           0        0.344728   -0.013147    4.155018
     58          1           0        0.762216    2.363799    0.581864
     59          1           0       -2.440702   -3.450101    0.071000
 ---------------------------------------------------------------------
 Rotational constants (GHZ):           0.1451406           0.0587736           0.0548207
 Standard basis: 6-31G(d) (6D, 7F)
 There are   625 symmetry adapted cartesian basis functions of A   symmetry.
 There are   625 symmetry adapted basis functions of A   symmetry.
   625 basis functions,  1172 primitive gaussians,   625 cartesian basis functions
   135 alpha electrons      135 beta electrons
       nuclear repulsion energy      4253.3681283269 Hartrees.
 NAtoms=   59 NActive=   59 NUniq=   59 SFac= 1.00D+00 NAtFMM=   60 NAOKFM=F Big=F
 Integral buffers will be    131072 words long.
 Raffenetti 1 integral format.
 Two-electron integral symmetry is turned on.
 One-electron integrals computed using PRISM.
 NBasis=   625 RedAO= T EigKep=  1.83D-04  NBF=   625
 NBsUse=   625 1.00D-06 EigRej= -1.00D+00 NBFU=   625
 ExpMin= 1.61D-01 ExpMax= 5.48D+03 ExpMxC= 8.25D+02 IAcc=3 IRadAn=         5 AccDes= 0.00D+00
 Harris functional with IExCor=20419 and IRadAn=       5 diagonalized for initial guess.
 HarFok:  IExCor=20419 AccDes= 0.00D+00 IRadAn=         5 IDoV= 1 UseB2=F ITyADJ=14
 ICtDFT=  3500011 ScaDFX=  1.000000  1.000000  1.000000  1.000000
 FoFCou: FMM=F IPFlag=           0 FMFlag=      100000 FMFlg1=           0
         NFxFlg=           0 DoJE=T BraDBF=F KetDBF=T FulRan=T
         wScrn=  0.000000 ICntrl=       500 IOpCl=  0 I1Cent=   200000004 NGrid=           0
         NMat0=    1 NMatS0=      1 NMatT0=    0 NMatD0=    1 NMtDS0=    0 NMtDT0=    0
 Petite list used in FoFCou.
 Requested convergence on RMS density matrix=1.00D-08 within 128 cycles.
 Requested convergence on MAX density matrix=1.00D-06.
 Requested convergence on             energy=1.00D-06.
 No special actions if energy rises.
 Integral accuracy reduced to 1.0D-05 until final iterations.
 Initial convergence to 1.0D-05 achieved.  Increase integral accuracy.
 SCF Done:  E(RCAM-B3LYP) =  -1794.22162301     A.U. after   17 cycles
            NFock= 17  Conv=0.55D-08     -V/T= 2.0090
 DoSCS=F DFT=T ScalE2(SS,OS)=  1.000000  1.000000
 ExpMin= 1.61D-01 ExpMax= 5.48D+03 ExpMxC= 8.25D+02 IAcc=3 IRadAn=         5 AccDes= 0.00D+00
 HarFok:  IExCor=  205 AccDes= 0.00D+00 IRadAn=         5 IDoV=-2 UseB2=F ITyADJ=14
 ICtDFT= 12500011 ScaDFX=  1.000000  1.000000  1.000000  1.000000
 GSVD:  LWork=       -1833 too small for GESVD, short by        8190 words or        8190 for optimal perf.
 Range of M.O.s used for correlation:    40   625
 NBasis=   625 NAE=   135 NBE=   135 NFC=    39 NFV=     0
 NROrb=    586 NOA=    96 NOB=    96 NVA=   490 NVB=   490

 **** Warning!!: The largest alpha MO coefficient is  0.12832571D+02

 Orbital symmetries:
       Occupied  (A) (A) (A) (A) (A) (A) (A) (A) (A) (A) (A) (A)
                 (A) (A) (A) (A) (A) (A) (A) (A) (A) (A) (A) (A)
                 (A) (A) (A) (A) (A) (A) (A) (A) (A) (A) (A) (A)
                 (A) (A) (A) (A) (A) (A) (A) (A) (A) (A) (A) (A)
                 (A) (A) (A) (A) (A) (A) (A) (A) (A) (A) (A) (A)
                 (A) (A) (A) (A) (A) (A) (A) (A) (A) (A) (A) (A)
                 (A) (A) (A) (A) (A) (A) (A) (A) (A) (A) (A) (A)
                 (A) (A) (A) (A) (A) (A) (A) (A) (A) (A) (A) (A)
                 (A) (A) (A) (A) (A) (A) (A) (A) (A) (A) (A) (A)
                 (A) (A) (A) (A) (A) (A) (A) (A) (A) (A) (A) (A)
                 (A) (A) (A) (A) (A) (A) (A) (A) (A) (A) (A) (A)
                 (A) (A) (A)
       Virtual   (A) (A) (A) (A) (A) (A) (A) (A) (A) (A) (A) (A)
                 (A) (A) (A) (A) (A) (A) (A) (A) (A) (A) (A) (A)
                 (A) (A) (A) (A) (A) (A) (A) (A) (A) (A) (A) (A)
                 (A) (A) (A) (A) (A) (A) (A) (A) (A) (A) (A) (A)
                 (A) (A) (A) (A) (A) (A) (A) (A) (A) (A) (A) (A)
                 (A) (A) (A) (A) (A) (A) (A) (A) (A) (A) (A) (A)
                 (A) (A) (A) (A) (A) (A) (A) (A) (A) (A) (A) (A)
                 (A) (A) (A) (A) (A) (A) (A) (A) (A) (A) (A) (A)
                 (A) (A) (A) (A) (A) (A) (A) (A) (A) (A) (A) (A)
                 (A) (A) (A) (A) (A) (A) (A) (A) (A) (A) (A) (A)
                 (A) (A) (A) (A) (A) (A) (A) (A) (A) (A) (A) (A)
                 (A) (A) (A) (A) (A) (A) (A) (A) (A) (A) (A) (A)
                 (A) (A) (A) (A) (A) (A) (A) (A) (A) (A) (A) (A)
                 (A) (A) (A) (A) (A) (A) (A) (A) (A) (A) (A) (A)
                 (A) (A) (A) (A) (A) (A) (A) (A) (A) (A) (A) (A)
                 (A) (A) (A) (A) (A) (A) (A) (A) (A) (A) (A) (A)
                 (A) (A) (A) (A) (A) (A) (A) (A) (A) (A) (A) (A)
                 (A) (A) (A) (A) (A) (A) (A) (A) (A) (A) (A) (A)
                 (A) (A) (A) (A) (A) (A) (A) (A) (A) (A) (A) (A)
                 (A) (A) (A) (A) (A) (A) (A) (A) (A) (A) (A) (A)
                 (A) (A) (A) (A) (A) (A) (A) (A) (A) (A) (A) (A)
                 (A) (A) (A) (A) (A) (A) (A) (A) (A) (A) (A) (A)
                 (A) (A) (A) (A) (A) (A) (A) (A) (A) (A) (A) (A)
                 (A) (A) (A) (A) (A) (A) (A) (A) (A) (A) (A) (A)
                 (A) (A) (A) (A) (A) (A) (A) (A) (A) (A) (A) (A)
                 (A) (A) (A) (A) (A) (A) (A) (A) (A) (A) (A) (A)
                 (A) (A) (A) (A) (A) (A) (A) (A) (A) (A) (A) (A)
                 (A) (A) (A) (A) (A) (A) (A) (A) (A) (A) (A) (A)
                 (A) (A) (A) (A) (A) (A) (A) (A) (A) (A) (A) (A)
                 (A) (A) (A) (A) (A) (A) (A) (A) (A) (A) (A) (A)
                 (A) (A) (A) (A) (A) (A) (A) (A) (A) (A) (A) (A)
                 (A) (A) (A) (A) (A) (A) (A) (A) (A) (A) (A) (A)
                 (A) (A) (A) (A) (A) (A) (A) (A) (A) (A) (A) (A)
                 (A) (A) (A) (A) (A) (A) (A) (A) (A) (A) (A) (A)
                 (A) (A) (A) (A) (A) (A) (A) (A) (A) (A) (A) (A)
                 (A) (A) (A) (A) (A) (A) (A) (A) (A) (A) (A) (A)
                 (A) (A) (A) (A) (A) (A) (A) (A) (A) (A) (A) (A)
                 (A) (A) (A) (A) (A) (A) (A) (A) (A) (A) (A) (A)
                 (A) (A) (A) (A) (A) (A) (A) (A) (A) (A) (A) (A)
                 (A) (A) (A) (A) (A) (A) (A) (A) (A) (A) (A) (A)
                 (A) (A) (A) (A) (A) (A) (A) (A) (A) (A)
    80 initial guesses have been made.
 Convergence on wavefunction:    0.001000000000000
 Iteration     1 Dimension    80 NMult     0 NNew     80
 CISAX will form    32 AO SS matrices at one time.
 New state      1 was old state      7
 New state      3 was old state      1
 New state      6 was old state     20
 New state      7 was old state     21
 New state      8 was old state      3
 New state      9 was old state     10
 New state     10 was old state      6
 New state     11 was old state      9
 New state     12 was old state     13
 New state     13 was old state      8
 New state     15 was old state     17
 New state     17 was old state     12
 New state     18 was old state     15
 New state     19 was old state     25
 New state     20 was old state     22
 Iteration     2 Dimension   120 NMult    80 NNew     40
 New state      4 was old state      7
 New state      7 was old state      4
 New state      8 was old state      9
 New state      9 was old state     10
 New state     10 was old state      8
 New state     11 was old state     12
 New state     12 was old state     11
 New state     13 was old state     14
 New state     14 was old state     13
 New state     17 was old state     18
 New state     18 was old state     17
 Iteration     3 Dimension   160 NMult   120 NNew     40
 Iteration     4 Dimension   200 NMult   160 NNew     40
 Iteration     5 Dimension   234 NMult   200 NNew     34
 Iteration     6 Dimension   246 NMult   234 NNew     12
 Iteration     7 Dimension   252 NMult   246 NNew      6
 Iteration     8 Dimension   256 NMult   252 NNew      4
 Iteration     9 Dimension   258 NMult   256 NNew      2
 Iteration    10 Dimension   260 NMult   258 NNew      2
 ***********************************************************************
 Excited states from <AA,BB:AA,BB> singles matrix:
 ***********************************************************************
 
 Ground to excited state transition densities written to RWF  633
 Ground to excited state transition electric dipole moments (Au):
       state          X           Y           Z        Dip. S.      Osc.
         1        -0.0141      0.0170     -0.0176      0.0008      0.0000
         2        -0.7416      0.3143     -0.3002      0.7388      0.0500
         3        -0.0976      0.1268     -0.0159      0.0258      0.0022
         4         0.0185      0.0141     -0.0185      0.0009      0.0001
         5        -0.3032      0.1024      0.8176      0.7708      0.0687
         6        -0.1214      0.0445      0.3621      0.1479      0.0132
         7         0.3890      1.0034     -0.0158      1.1584      0.1056
         8        -0.1595      0.4395     -0.0820      0.2253      0.0220
         9         0.6471     -0.0138     -0.3116      0.5161      0.0532
        10        -0.0191      0.2559     -0.0341      0.0670      0.0070
        11         0.3931     -0.2530      0.3443      0.3371      0.0365
        12        -0.2344     -0.3456     -0.0883      0.1822      0.0199
        13         1.3893      1.6627      0.2259      4.7456      0.5369
        14         0.0430      0.0395     -0.0210      0.0038      0.0005
        15        -0.3835      0.2350      0.0426      0.2041      0.0246
        16         0.4453     -0.1359      0.2784      0.2943      0.0361
        17         2.2139     -0.2765     -0.3106      5.0743      0.6380
        18         0.6978     -0.3099     -0.2334      0.6375      0.0820
        19        -0.6936     -0.0857      0.1555      0.5126      0.0664
        20         0.0879      0.1010     -0.0042      0.0180      0.0024
 Ground to excited state transition velocity dipole moments (Au):
       state          X           Y           Z        Dip. S.      Osc.
         1         0.0026     -0.0020     -0.0017      0.0000      0.0001
         2         0.0904     -0.0301      0.0347      0.0103      0.0676
         3         0.0127     -0.0135      0.0058      0.0004      0.0020
         4        -0.0031     -0.0010      0.0036      0.0000      0.0001
         5         0.0466     -0.0147     -0.1109      0.0147      0.0732
         6         0.0192     -0.0073     -0.0491      0.0028      0.0141
         7        -0.0518     -0.1267      0.0009      0.0187      0.0913
         8         0.0204     -0.0635      0.0108      0.0046      0.0208
         9        -0.0962      0.0013      0.0476      0.0115      0.0496
        10         0.0020     -0.0372      0.0052      0.0014      0.0060
        11        -0.0567      0.0397     -0.0590      0.0083      0.0339
        12         0.0371      0.0559      0.0123      0.0047      0.0189
        13        -0.2394     -0.2767     -0.0408      0.1356      0.5326
        14        -0.0081     -0.0069      0.0034      0.0001      0.0005
        15         0.0771     -0.0434     -0.0136      0.0080      0.0296
        16        -0.0737      0.0250     -0.0564      0.0092      0.0335
        17        -0.4044      0.0522      0.0660      0.1706      0.6030
        18        -0.1337      0.0545      0.0379      0.0223      0.0770
        19         0.1343      0.0104     -0.0258      0.0188      0.0646
        20        -0.0205     -0.0152      0.0064      0.0007      0.0023
 Ground to excited state transition magnetic dipole moments (Au):
       state          X           Y           Z
         1         0.3736      0.0476      0.1489
         2        -0.2346      0.2138      0.6981
         3        -0.0238     -0.0654      0.1296
         4         0.0103     -0.9225      0.1660
         5        -0.0784      0.9815     -0.2139
         6         0.5652      0.4304      0.4961
         7        -0.0574      0.0134      0.5008
         8         0.0819     -0.0162     -0.0299
         9        -0.0454     -0.0143      0.0496
        10        -0.0026      0.0885      0.2696
        11         0.1215     -0.4772     -0.5602
        12         0.2310      0.1259     -0.3759
        13        -0.5286      0.0579      2.3207
        14         0.0530     -0.0031     -0.1044
        15        -0.0945     -0.2904      0.5440
        16         0.1410     -0.2249     -0.2838
        17        -0.1393     -1.2366     -0.1324
        18        -0.0558      0.3070     -0.1872
        19        -0.2580     -0.3135      0.2976
        20         0.4781     -0.0225      0.0509
 Ground to excited state transition velocity quadrupole moments (Au):
       state          XX          YY          ZZ          XY          XZ          YZ
         1        -0.0090     -0.0109      0.0032      0.0109      0.0018     -0.0031
         2        -0.5806      0.0013     -0.0469      0.6389     -0.2669      0.2098
         3         0.0252     -0.0401     -0.0174      0.1073      0.0044      0.0410
         4        -0.0236      0.0141      0.0018      0.0351      0.0216      0.0232
         5         0.2363     -0.0036     -0.0312     -0.0537     -0.5492      0.0947
         6         0.1001     -0.0022     -0.0049     -0.0129     -0.2576      0.0082
         7         0.6636     -0.4593      0.0423      0.5467      0.1259      0.1425
         8         0.3216     -0.4864      0.1969     -0.3920      0.0227     -0.1156
         9        -0.7378      0.0280      0.2038      0.1145      0.1177     -0.0103
        10         0.1132     -0.0890     -0.0053      0.2808     -0.0125      0.0769
        11         0.1900      0.1939     -0.0797     -0.2182     -0.5319     -0.0204
        12        -0.3870      0.0681      0.0151     -0.3902     -0.0523     -0.1119
        13         2.2389     -0.6477      0.0148      1.5286      0.4977      0.3539
        14         0.0444     -0.1083      0.0304      0.0125      0.0991      0.0008
        15         0.6502     -0.0165      0.1554      0.1379     -1.1189      0.0955
        16         0.7018      0.0447      0.0883     -0.1365     -0.4741     -0.0089
        17        -2.9022      0.4676     -0.0983      0.4705      0.2381     -0.0760
        18        -2.2848      0.0111      0.4822      0.1492      0.2163     -0.0303
        19         1.6250     -0.1857     -0.3208     -0.3874     -0.1205      0.0031
        20         0.0140      0.1701     -0.0467      0.0770      0.0299      0.0713
 <0|del|b> * <b|rxdel|0> + <0|del|b> * <b|delr+rdel|0>
 Rotatory Strengths (R) in cgs (10**-40 erg-esu-cm/Gauss)
       state          XX          YY          ZZ    R(velocity)    E-M Angle
         1        -1.5385      3.0277      3.6697      1.7196       65.82
         2       111.1343     -0.6596   -134.4278     -7.9844       92.53
         3         6.5199      0.9758      0.0155      2.5037       62.04
         4         4.6025      1.0069      2.6157      2.7417       70.49
         5        18.7947     48.9662    -38.1737      9.8624       87.37
         6       -75.9115    -36.9465     24.8362    -29.3406      111.20
         7        39.4048    -11.5085    -18.8365      3.0199       88.55
         8        -5.0060      7.7519      8.7299      3.8253       66.60
         9        17.4693      5.1640      8.0203     10.2179       24.57
        10        -2.0368      0.1992     -6.7395     -2.8590      100.25
        11       104.6266     31.4268   -104.6328     10.4736       83.89
        12         1.1379      9.9140     36.3192     15.7904       69.45
        13       -73.3067     19.8904    119.8130     22.1322       88.96
        14         0.7788     -1.6604     -2.1586     -1.0134      125.73
        15       -88.5958    -10.6345     91.2322     -2.6660       92.10
        16        57.5981     -2.7411    -54.8571     -0.0000       90.00
        17      -102.4427     88.6677    -49.7187    -21.1646       91.88
        18         6.4166     -2.2891     58.4847     20.8707       71.66
        19         0.5495    -94.4618    -72.0846    -55.3323      131.31
        20         2.8983    -20.4928    -15.1524    -10.9157      136.13
 1/2[<0|r|b>*<b|rxdel|0> + (<0|rxdel|b>*<b|r|0>)*]
 Rotatory Strengths (R) in cgs (10**-40 erg-esu-cm/Gauss)
       state          XX          YY          ZZ     R(length)
         1         3.7131     -0.5725      1.8573      1.6660
         2      -123.0429    -47.5175    148.1723     -7.4627
         3        -1.6396      5.8602      1.4540      1.8915
         4        -0.1344      9.2269      2.1766      3.7563
         5       -16.8109    -71.0475    123.6375     11.9264
         6        48.5375    -13.5503   -127.0486    -30.6871
         7        15.7992     -9.5081      5.5781      3.9564
         8         9.2386      5.0307     -1.7313      4.1793
         9        20.7572     -0.1390     10.9219     10.5134
        10        -0.0352    -16.0082      6.5025     -3.1803
        11       -33.7640    -85.3644    136.4114      5.7610
        12        38.2977     30.7766    -23.4646     15.2032
        13       519.3177    -68.1122   -370.7101     26.8318
        14        -1.6099      0.0866     -1.5477     -1.0237
        15       -25.6221     48.2660    -16.3866      2.0858
        16       -44.4105    -21.6054     55.8701     -3.3819
        17       218.0755   -241.7529    -29.0898    -17.5890
        18        27.5175     67.2784    -30.9036     21.2974
        19      -126.5326    -18.9917    -32.7285    -59.4176
        20       -29.7336      1.6088      0.1523     -9.3242
  1/2[<0|del|b>*<b|r|0> + (<0|r|b>*<b|del|0>)*] (Au)
       state          X           Y           Z        Dip. S.   Osc.(frdel)
         1        -0.0000     -0.0000      0.0000      0.0000      0.0000
         2        -0.0670     -0.0095     -0.0104      0.0869      0.0580
         3        -0.0012     -0.0017     -0.0001      0.0030      0.0020
         4        -0.0001     -0.0000     -0.0001      0.0001      0.0001
         5        -0.0141     -0.0015     -0.0906      0.1063      0.0709
         6        -0.0023     -0.0003     -0.0178      0.0204      0.0136
         7        -0.0202     -0.1271     -0.0000      0.1473      0.0982
         8        -0.0033     -0.0279     -0.0009      0.0321      0.0214
         9        -0.0622     -0.0000     -0.0148      0.0771      0.0514
        10        -0.0000     -0.0095     -0.0002      0.0097      0.0065
        11        -0.0223     -0.0100     -0.0203      0.0526      0.0351
        12        -0.0087     -0.0193     -0.0011      0.0291      0.0194
        13        -0.3326     -0.4601     -0.0092      0.8020      0.5346
        14        -0.0003     -0.0003     -0.0001      0.0007      0.0005
        15        -0.0296     -0.0102     -0.0006      0.0404      0.0269
        16        -0.0328     -0.0034     -0.0157      0.0519      0.0346
        17        -0.8952     -0.0144     -0.0205      0.9302      0.6201
        18        -0.0933     -0.0169     -0.0089      0.1190      0.0794
        19        -0.0932     -0.0009     -0.0040      0.0981      0.0654
        20        -0.0018     -0.0015     -0.0000      0.0034      0.0022

 Excitation energies and oscillator strengths:
 
 Excited State   1:      Singlet-A      2.3020 eV  538.60 nm  f=0.0000  <S**2>=0.000
     131 ->136         0.66855
     131 ->138         0.11135
 
 Excited State   2:      Singlet-A      2.7616 eV  448.95 nm  f=0.0500  <S**2>=0.000
     128 ->136        -0.11624
     134 ->136         0.65780
     135 ->136        -0.19128
 
 Excited State   3:      Singlet-A      3.4315 eV  361.32 nm  f=0.0022  <S**2>=0.000
     134 ->136         0.19101
     135 ->136         0.66091
 
 Excited State   4:      Singlet-A      3.5733 eV  346.97 nm  f=0.0001  <S**2>=0.000
     124 ->136         0.43126
     125 ->136         0.45859
     131 ->139         0.12465
 
 Excited State   5:      Singlet-A      3.6391 eV  340.70 nm  f=0.0687  <S**2>=0.000
     130 ->137        -0.26708
     135 ->137         0.62164
 
 Excited State   6:      Singlet-A      3.6432 eV  340.32 nm  f=0.0132  <S**2>=0.000
     128 ->137        -0.15158
     130 ->137         0.58377
     130 ->141        -0.13087
     135 ->137         0.27800
 
 Excited State   7:      Singlet-A      3.7213 eV  333.17 nm  f=0.1056  <S**2>=0.000
     128 ->136         0.12201
     132 ->136         0.53856
     133 ->136         0.27139
     134 ->138        -0.25443
 
 Excited State   8:      Singlet-A      3.9900 eV  310.74 nm  f=0.0220  <S**2>=0.000
     128 ->136         0.53668
     129 ->136        -0.30915
     130 ->136         0.17174
     132 ->136        -0.17343
     134 ->136         0.10269
 
 Excited State   9:      Singlet-A      4.2079 eV  294.65 nm  f=0.0532  <S**2>=0.000
     132 ->137        -0.16069
     133 ->137         0.49407
     133 ->139         0.10010
     134 ->137        -0.29035
     135 ->140         0.28847
 
 Excited State  10:      Singlet-A      4.2591 eV  291.11 nm  f=0.0070  <S**2>=0.000
     123 ->136         0.10510
     128 ->136        -0.11560
     132 ->136        -0.23558
     133 ->136         0.62731
 
 Excited State  11:      Singlet-A      4.4205 eV  280.47 nm  f=0.0365  <S**2>=0.000
     129 ->137         0.13931
     132 ->137        -0.18746
     133 ->137         0.12546
     134 ->137         0.55141
     134 ->139        -0.14422
     135 ->139         0.15797
     135 ->140         0.16058
 
 Excited State  12:      Singlet-A      4.4632 eV  277.79 nm  f=0.0199  <S**2>=0.000
     128 ->136         0.25793
     129 ->136         0.57874
     132 ->136        -0.15837
     134 ->137        -0.12240
     134 ->138        -0.11890
 
 Excited State  13:      Singlet-A      4.6179 eV  268.48 nm  f=0.5369  <S**2>=0.000
     128 ->136         0.17898
     129 ->136         0.12723
     132 ->136         0.24794
     132 ->138         0.10668
     133 ->138         0.10067
     134 ->138         0.52782
     134 ->139         0.14338
     135 ->138        -0.11645
 
 Excited State  14:      Singlet-A      4.8633 eV  254.94 nm  f=0.0005  <S**2>=0.000
     128 ->136        -0.19624
     130 ->136         0.65840
 
 Excited State  15:      Singlet-A      4.9134 eV  252.34 nm  f=0.0246  <S**2>=0.000
     127 ->137         0.13669
     129 ->137         0.34536
     132 ->138         0.13567
     133 ->137        -0.17096
     134 ->138        -0.16031
     134 ->139         0.36486
     134 ->141        -0.10818
     135 ->139         0.16428
     135 ->140         0.14852
     135 ->141         0.13442
 
 Excited State  16:      Singlet-A      5.0017 eV  247.88 nm  f=0.0361  <S**2>=0.000
     127 ->137         0.11684
     129 ->137         0.17318
     132 ->138        -0.18078
     133 ->137        -0.16109
     134 ->137        -0.22580
     134 ->138         0.16380
     134 ->139        -0.28901
     134 ->140         0.15553
     134 ->141         0.15600
     135 ->138        -0.15330
     135 ->139         0.31365
     135 ->141         0.12050
 
 Excited State  17:      Singlet-A      5.1320 eV  241.59 nm  f=0.6380  <S**2>=0.000
     129 ->137         0.36532
     132 ->137        -0.20993
     133 ->137         0.19749
     133 ->141        -0.10138
     135 ->137         0.11881
     135 ->139        -0.24985
     135 ->140        -0.33651
 
 Excited State  18:      Singlet-A      5.2535 eV  236.00 nm  f=0.0820  <S**2>=0.000
     124 ->136         0.12692
     125 ->136        -0.10216
     126 ->136        -0.10683
     127 ->136         0.31736
     127 ->137         0.11935
     129 ->137        -0.19728
     133 ->137         0.20933
     134 ->139         0.10664
     135 ->139         0.20177
     135 ->140        -0.24086
     135 ->141         0.25812
 
 Excited State  19:      Singlet-A      5.2839 eV  234.65 nm  f=0.0664  <S**2>=0.000
     122 ->136         0.10207
     124 ->136         0.23574
     125 ->136        -0.19799
     126 ->136        -0.14736
     127 ->136         0.40677
     127 ->137        -0.10121
     129 ->137         0.14052
     133 ->137        -0.15091
     135 ->138         0.11523
     135 ->139        -0.11573
     135 ->140         0.17210
     135 ->141        -0.18479
 
 Excited State  20:      Singlet-A      5.3713 eV  230.83 nm  f=0.0024  <S**2>=0.000
     124 ->136        -0.20389
     127 ->136         0.18125
     131 ->136        -0.14468
     131 ->138         0.48191
     131 ->139         0.19058
     131 ->142         0.24244
 This state for optimization and/or second-order correction.
 Total Energy, E(TD-HF/TD-DFT) =  -1794.02422974    
 Copying the excited state density for this state as the 1-particle RhoCI density.
 SavETr:  write IOETrn=   770 NScale= 10 NData=  16 NLR=1 NState=   20 LETran=     370.

 **********************************************************************

            Population analysis using the SCF density.

 **********************************************************************

 Orbital symmetries:
       Occupied  (A) (A) (A) (A) (A) (A) (A) (A) (A) (A) (A) (A)
                 (A) (A) (A) (A) (A) (A) (A) (A) (A) (A) (A) (A)
                 (A) (A) (A) (A) (A) (A) (A) (A) (A) (A) (A) (A)
                 (A) (A) (A) (A) (A) (A) (A) (A) (A) (A) (A) (A)
                 (A) (A) (A) (A) (A) (A) (A) (A) (A) (A) (A) (A)
                 (A) (A) (A) (A) (A) (A) (A) (A) (A) (A) (A) (A)
                 (A) (A) (A) (A) (A) (A) (A) (A) (A) (A) (A) (A)
                 (A) (A) (A) (A) (A) (A) (A) (A) (A) (A) (A) (A)
                 (A) (A) (A) (A) (A) (A) (A) (A) (A) (A) (A) (A)
                 (A) (A) (A) (A) (A) (A) (A) (A) (A) (A) (A) (A)
                 (A) (A) (A) (A) (A) (A) (A) (A) (A) (A) (A) (A)
                 (A) (A) (A)
       Virtual   (A) (A) (A) (A) (A) (A) (A) (A) (A) (A) (A) (A)
                 (A) (A) (A) (A) (A) (A) (A) (A) (A) (A) (A) (A)
                 (A) (A) (A) (A) (A) (A) (A) (A) (A) (A) (A) (A)
                 (A) (A) (A) (A) (A) (A) (A) (A) (A) (A) (A) (A)
                 (A) (A) (A) (A) (A) (A) (A) (A) (A) (A) (A) (A)
                 (A) (A) (A) (A) (A) (A) (A) (A) (A) (A) (A) (A)
                 (A) (A) (A) (A) (A) (A) (A) (A) (A) (A) (A) (A)
                 (A) (A) (A) (A) (A) (A) (A) (A) (A) (A) (A) (A)
                 (A) (A) (A) (A) (A) (A) (A) (A) (A) (A) (A) (A)
                 (A) (A) (A) (A) (A) (A) (A) (A) (A) (A) (A) (A)
                 (A) (A) (A) (A) (A) (A) (A) (A) (A) (A) (A) (A)
                 (A) (A) (A) (A) (A) (A) (A) (A) (A) (A) (A) (A)
                 (A) (A) (A) (A) (A) (A) (A) (A) (A) (A) (A) (A)
                 (A) (A) (A) (A) (A) (A) (A) (A) (A) (A) (A) (A)
                 (A) (A) (A) (A) (A) (A) (A) (A) (A) (A) (A) (A)
                 (A) (A) (A) (A) (A) (A) (A) (A) (A) (A) (A) (A)
                 (A) (A) (A) (A) (A) (A) (A) (A) (A) (A) (A) (A)
                 (A) (A) (A) (A) (A) (A) (A) (A) (A) (A) (A) (A)
                 (A) (A) (A) (A) (A) (A) (A) (A) (A) (A) (A) (A)
                 (A) (A) (A) (A) (A) (A) (A) (A) (A) (A) (A) (A)
                 (A) (A) (A) (A) (A) (A) (A) (A) (A) (A) (A) (A)
                 (A) (A) (A) (A) (A) (A) (A) (A) (A) (A) (A) (A)
                 (A) (A) (A) (A) (A) (A) (A) (A) (A) (A) (A) (A)
                 (A) (A) (A) (A) (A) (A) (A) (A) (A) (A) (A) (A)
                 (A) (A) (A) (A) (A) (A) (A) (A) (A) (A) (A) (A)
                 (A) (A) (A) (A) (A) (A) (A) (A) (A) (A) (A) (A)
                 (A) (A) (A) (A) (A) (A) (A) (A) (A) (A) (A) (A)
                 (A) (A) (A) (A) (A) (A) (A) (A) (A) (A) (A) (A)
                 (A) (A) (A) (A) (A) (A) (A) (A) (A) (A) (A) (A)
                 (A) (A) (A) (A) (A) (A) (A) (A) (A) (A) (A) (A)
                 (A) (A) (A) (A) (A) (A) (A) (A) (A) (A) (A) (A)
                 (A) (A) (A) (A) (A) (A) (A) (A) (A) (A) (A) (A)
                 (A) (A) (A) (A) (A) (A) (A) (A) (A) (A) (A) (A)
                 (A) (A) (A) (A) (A) (A) (A) (A) (A) (A) (A) (A)
                 (A) (A) (A) (A) (A) (A) (A) (A) (A) (A) (A) (A)
                 (A) (A) (A) (A) (A) (A) (A) (A) (A) (A) (A) (A)
                 (A) (A) (A) (A) (A) (A) (A) (A) (A) (A) (A) (A)
                 (A) (A) (A) (A) (A) (A) (A) (A) (A) (A) (A) (A)
                 (A) (A) (A) (A) (A) (A) (A) (A) (A) (A) (A) (A)
                 (A) (A) (A) (A) (A) (A) (A) (A) (A) (A) (A) (A)
                 (A) (A) (A) (A) (A) (A) (A) (A) (A) (A)
 The electronic state is 1-A.
 Alpha  occ. eigenvalues --  -19.28496 -19.27206 -19.26691 -19.25961 -19.23641
 Alpha  occ. eigenvalues --  -19.22713 -19.22681 -19.20497 -10.37216 -10.35854
 Alpha  occ. eigenvalues --  -10.35830 -10.35804 -10.35558 -10.34570 -10.34489
 Alpha  occ. eigenvalues --  -10.33331 -10.32848 -10.32617 -10.32034 -10.31525
 Alpha  occ. eigenvalues --  -10.30665 -10.30150 -10.29799 -10.29461 -10.29014
 Alpha  occ. eigenvalues --  -10.28738 -10.28584 -10.28582 -10.28219 -10.28197
 Alpha  occ. eigenvalues --  -10.28131 -10.27896 -10.27272 -10.27202 -10.27183
 Alpha  occ. eigenvalues --  -10.27023 -10.26940 -10.26856 -10.25966  -1.18699
 Alpha  occ. eigenvalues --   -1.16412  -1.16177  -1.15193  -1.14141  -1.12406
 Alpha  occ. eigenvalues --   -1.11378  -1.11236  -0.98282  -0.97456  -0.95193
 Alpha  occ. eigenvalues --   -0.92437  -0.90595  -0.89663  -0.86924  -0.86012
 Alpha  occ. eigenvalues --   -0.85782  -0.83701  -0.82894  -0.81944  -0.81265
 Alpha  occ. eigenvalues --   -0.80534  -0.78656  -0.76386  -0.75747  -0.72409
 Alpha  occ. eigenvalues --   -0.72409  -0.70804  -0.70329  -0.69718  -0.69157
 Alpha  occ. eigenvalues --   -0.67034  -0.64127  -0.63784  -0.63561  -0.61853
 Alpha  occ. eigenvalues --   -0.61360  -0.60641  -0.60164  -0.59165  -0.58396
 Alpha  occ. eigenvalues --   -0.57866  -0.56928  -0.56392  -0.56199  -0.55783
 Alpha  occ. eigenvalues --   -0.55383  -0.54727  -0.53702  -0.53410  -0.52966
 Alpha  occ. eigenvalues --   -0.52515  -0.51997  -0.51449  -0.51187  -0.50965
 Alpha  occ. eigenvalues --   -0.50741  -0.50302  -0.49878  -0.49366  -0.48849
 Alpha  occ. eigenvalues --   -0.48495  -0.48372  -0.48184  -0.47206  -0.47040
 Alpha  occ. eigenvalues --   -0.46851  -0.46592  -0.46237  -0.45307  -0.44639
 Alpha  occ. eigenvalues --   -0.44305  -0.43792  -0.43459  -0.43198  -0.42974
 Alpha  occ. eigenvalues --   -0.42537  -0.42104  -0.41720  -0.41251  -0.40047
 Alpha  occ. eigenvalues --   -0.39637  -0.38593  -0.37479  -0.35835  -0.35440
 Alpha  occ. eigenvalues --   -0.34697  -0.32940  -0.31641  -0.31296  -0.31068
 Alpha  occ. eigenvalues --   -0.30518  -0.29453  -0.28922  -0.26178  -0.25454
 Alpha virt. eigenvalues --   -0.07547  -0.03307  -0.00269   0.00966   0.02775
 Alpha virt. eigenvalues --    0.03741   0.05569   0.07975   0.09168   0.10920
 Alpha virt. eigenvalues --    0.12947   0.13365   0.13637   0.13909   0.14041
 Alpha virt. eigenvalues --    0.14958   0.15163   0.15662   0.16848   0.17201
 Alpha virt. eigenvalues --    0.18029   0.18515   0.18807   0.19084   0.19783
 Alpha virt. eigenvalues --    0.20007   0.20154   0.20425   0.20679   0.20873
 Alpha virt. eigenvalues --    0.20957   0.21802   0.21844   0.23350   0.23541
 Alpha virt. eigenvalues --    0.24027   0.24482   0.25845   0.26225   0.26475
 Alpha virt. eigenvalues --    0.26897   0.28039   0.28147   0.28726   0.29374
 Alpha virt. eigenvalues --    0.29513   0.30185   0.30831   0.31264   0.31881
 Alpha virt. eigenvalues --    0.32823   0.33306   0.33847   0.35295   0.36587
 Alpha virt. eigenvalues --    0.36969   0.38036   0.39038   0.40064   0.40968
 Alpha virt. eigenvalues --    0.41513   0.41843   0.42192   0.43675   0.44419
 Alpha virt. eigenvalues --    0.44641   0.46011   0.46563   0.48427   0.50407
 Alpha virt. eigenvalues --    0.51159   0.51346   0.52442   0.52904   0.53423
 Alpha virt. eigenvalues --    0.54303   0.54869   0.54961   0.55066   0.55403
 Alpha virt. eigenvalues --    0.55590   0.56053   0.56505   0.57215   0.57610
 Alpha virt. eigenvalues --    0.58353   0.58517   0.58911   0.59248   0.59488
 Alpha virt. eigenvalues --    0.59936   0.60182   0.60270   0.60508   0.61054
 Alpha virt. eigenvalues --    0.61268   0.61674   0.61994   0.62746   0.63179
 Alpha virt. eigenvalues --    0.63678   0.63840   0.63933   0.64403   0.64752
 Alpha virt. eigenvalues --    0.65217   0.65520   0.66220   0.66438   0.67172
 Alpha virt. eigenvalues --    0.67380   0.68087   0.68293   0.68853   0.69108
 Alpha virt. eigenvalues --    0.69480   0.69958   0.70257   0.70854   0.71810
 Alpha virt. eigenvalues --    0.71949   0.72000   0.72871   0.73407   0.73611
 Alpha virt. eigenvalues --    0.73837   0.74714   0.75227   0.75937   0.76915
 Alpha virt. eigenvalues --    0.77628   0.78871   0.79195   0.79414   0.79805
 Alpha virt. eigenvalues --    0.80476   0.80580   0.81840   0.83601   0.84599
 Alpha virt. eigenvalues --    0.85190   0.86840   0.87012   0.87781   0.88266
 Alpha virt. eigenvalues --    0.88520   0.88665   0.89337   0.89791   0.90028
 Alpha virt. eigenvalues --    0.90161   0.90561   0.90774   0.90982   0.91452
 Alpha virt. eigenvalues --    0.91595   0.91914   0.92161   0.92641   0.92904
 Alpha virt. eigenvalues --    0.93485   0.94360   0.94599   0.94811   0.95667
 Alpha virt. eigenvalues --    0.96301   0.97099   0.97785   0.98358   0.98672
 Alpha virt. eigenvalues --    0.98890   0.99279   0.99826   1.00051   1.00731
 Alpha virt. eigenvalues --    1.00876   1.02134   1.02662   1.03147   1.03616
 Alpha virt. eigenvalues --    1.04611   1.05272   1.05605   1.06154   1.06555
 Alpha virt. eigenvalues --    1.08012   1.09593   1.09738   1.10276   1.10633
 Alpha virt. eigenvalues --    1.11592   1.12046   1.12535   1.12807   1.13311
 Alpha virt. eigenvalues --    1.14506   1.15151   1.15943   1.16306   1.16743
 Alpha virt. eigenvalues --    1.17589   1.17939   1.18435   1.19228   1.20134
 Alpha virt. eigenvalues --    1.20553   1.21837   1.23247   1.23914   1.25150
 Alpha virt. eigenvalues --    1.25614   1.26204   1.26733   1.28657   1.28787
 Alpha virt. eigenvalues --    1.29369   1.29781   1.30615   1.31526   1.32002
 Alpha virt. eigenvalues --    1.33166   1.33396   1.34050   1.34177   1.36000
 Alpha virt. eigenvalues --    1.37249   1.38184   1.38341   1.39529   1.40041
 Alpha virt. eigenvalues --    1.41668   1.42155   1.42504   1.43199   1.43668
 Alpha virt. eigenvalues --    1.44336   1.44412   1.45543   1.46131   1.46743
 Alpha virt. eigenvalues --    1.47280   1.47356   1.47777   1.48888   1.49032
 Alpha virt. eigenvalues --    1.49759   1.50709   1.51113   1.51539   1.52470
 Alpha virt. eigenvalues --    1.53043   1.53464   1.53829   1.54980   1.56105
 Alpha virt. eigenvalues --    1.56473   1.56982   1.57759   1.58446   1.58966
 Alpha virt. eigenvalues --    1.59346   1.60665   1.62030   1.64622   1.66059
 Alpha virt. eigenvalues --    1.68125   1.69062   1.70354   1.71719   1.72681
 Alpha virt. eigenvalues --    1.73429   1.74577   1.76207   1.77994   1.78103
 Alpha virt. eigenvalues --    1.78605   1.79169   1.80083   1.80452   1.80697
 Alpha virt. eigenvalues --    1.80933   1.81437   1.82050   1.82190   1.82921
 Alpha virt. eigenvalues --    1.82973   1.84491   1.84726   1.85150   1.85741
 Alpha virt. eigenvalues --    1.87044   1.87548   1.88943   1.89134   1.90101
 Alpha virt. eigenvalues --    1.90566   1.91529   1.92090   1.93350   1.93374
 Alpha virt. eigenvalues --    1.93790   1.94375   1.95542   1.96005   1.96640
 Alpha virt. eigenvalues --    1.96886   1.97189   1.97697   1.98254   1.98622
 Alpha virt. eigenvalues --    1.99672   1.99949   2.00566   2.01096   2.01542
 Alpha virt. eigenvalues --    2.01974   2.02959   2.03253   2.05319   2.05535
 Alpha virt. eigenvalues --    2.05917   2.06373   2.06587   2.07530   2.07727
 Alpha virt. eigenvalues --    2.08886   2.09190   2.10132   2.10666   2.11815
 Alpha virt. eigenvalues --    2.12250   2.13138   2.13252   2.13970   2.14440
 Alpha virt. eigenvalues --    2.14965   2.15335   2.16273   2.17032   2.18116
 Alpha virt. eigenvalues --    2.18891   2.20205   2.20817   2.22339   2.23207
 Alpha virt. eigenvalues --    2.24500   2.26110   2.26536   2.27235   2.27474
 Alpha virt. eigenvalues --    2.28430   2.28982   2.29210   2.30488   2.30901
 Alpha virt. eigenvalues --    2.31819   2.32648   2.32816   2.34058   2.34822
 Alpha virt. eigenvalues --    2.35333   2.35590   2.36910   2.37213   2.37784
 Alpha virt. eigenvalues --    2.38645   2.38907   2.39688   2.40054   2.40660
 Alpha virt. eigenvalues --    2.41234   2.41392   2.42519   2.43196   2.43960
 Alpha virt. eigenvalues --    2.45047   2.46989   2.47517   2.49382   2.49858
 Alpha virt. eigenvalues --    2.51529   2.52053   2.53528   2.54004   2.54414
 Alpha virt. eigenvalues --    2.56196   2.57119   2.57577   2.58923   2.59759
 Alpha virt. eigenvalues --    2.60395   2.60479   2.64251   2.64863   2.65095
 Alpha virt. eigenvalues --    2.67674   2.67917   2.68816   2.69427   2.71298
 Alpha virt. eigenvalues --    2.71668   2.72212   2.73604   2.74067   2.74491
 Alpha virt. eigenvalues --    2.75726   2.76026   2.77653   2.78250   2.78851
 Alpha virt. eigenvalues --    2.80365   2.81447   2.82916   2.84388   2.85862
 Alpha virt. eigenvalues --    2.86829   2.87912   2.90461   2.90785   2.91851
 Alpha virt. eigenvalues --    2.92671   2.93116   2.94251   2.95023   2.97759
 Alpha virt. eigenvalues --    2.98403   2.99249   2.99828   3.01313   3.02677
 Alpha virt. eigenvalues --    3.04331   3.05501   3.06667   3.09550   3.11409
 Alpha virt. eigenvalues --    3.13091   3.14984   3.16822   3.17816   3.19894
 Alpha virt. eigenvalues --    3.20838   3.25309   3.26656   3.28180   3.30897
 Alpha virt. eigenvalues --    3.35541   3.39346   3.49394   3.53982   3.57010
 Alpha virt. eigenvalues --    3.59576   3.91926   3.96573   4.06522   4.10458
 Alpha virt. eigenvalues --    4.12213   4.14733   4.14847   4.15853   4.16401
 Alpha virt. eigenvalues --    4.17085   4.19040   4.19753   4.21462   4.24360
 Alpha virt. eigenvalues --    4.25593   4.28256   4.29929   4.30665   4.31347
 Alpha virt. eigenvalues --    4.33075   4.37288   4.40495   4.40559   4.42054
 Alpha virt. eigenvalues --    4.43396   4.45779   4.49947   4.51645   4.55641
 Alpha virt. eigenvalues --    4.58733   4.61212   4.69232   4.72754   4.78205
 Alpha virt. eigenvalues --    4.90376   4.95597   5.05470   5.07034   5.17824
          Condensed to atoms (all electrons):
 Mulliken charges:
               1
     1  C   -0.221003
     2  O   -0.508196
     3  C    0.394496
     4  C   -0.299814
     5  C    0.160001
     6  C   -0.002818
     7  C    0.054383
     8  C    0.010898
     9  C    0.319184
    10  O   -0.427879
    11  C   -0.171007
    12  C   -0.205376
    13  C    0.364403
    14  O   -0.572909
    15  C    0.078777
    16  C    0.062533
    17  C   -0.168377
    18  C   -0.181473
    19  C    0.077304
    20  C    0.044581
    21  C   -0.191055
    22  C   -0.206571
    23  C    0.322667
    24  O   -0.646863
    25  C    0.237402
    26  O   -0.525711
    27  C   -0.218879
    28  C   -0.016407
    29  C    0.416304
    30  O   -0.500031
    31  C    0.471791
    32  O   -0.499242
    33  C   -0.229253
    34  C   -0.303648
    35  C    0.135321
    36  C   -0.297487
    37  C    0.401718
    38  O   -0.427266
    39  C   -0.262361
    40  H    0.179586
    41  H    0.160267
    42  H    0.158748
    43  H    0.139649
    44  H    0.174595
    45  H    0.145288
    46  H    0.149536
    47  H    0.166005
    48  H    0.199600
    49  H    0.132736
    50  H    0.416366
    51  H    0.162596
    52  H    0.145770
    53  H    0.174464
    54  H    0.173134
    55  H    0.186475
    56  H    0.172324
    57  H    0.155990
    58  H    0.175040
    59  H    0.163693
 Sum of Mulliken charges =  -0.00000
 Mulliken charges with hydrogens summed into heavy atoms:
               1
     1  C    0.277599
     2  O   -0.508196
     3  C    0.394496
     4  C   -0.160164
     5  C    0.160001
     6  C   -0.002818
     7  C    0.054383
     8  C    0.010898
     9  C    0.319184
    10  O   -0.427879
    11  C    0.003588
    12  C   -0.060088
    13  C    0.364403
    14  O   -0.572909
    15  C    0.078777
    16  C    0.062533
    17  C   -0.018841
    18  C   -0.015467
    19  C    0.077304
    20  C    0.044581
    21  C    0.008544
    22  C   -0.073835
    23  C    0.322667
    24  O   -0.230497
    25  C    0.237402
    26  O   -0.525711
    27  C    0.263951
    28  C   -0.016407
    29  C    0.416304
    30  O   -0.500031
    31  C    0.471791
    32  O   -0.499242
    33  C    0.302680
    34  C   -0.147658
    35  C    0.135321
    36  C   -0.122446
    37  C    0.401718
    38  O   -0.427266
    39  C   -0.098669
 Electronic spatial extent (au):  <R**2>=          20766.7082
 Charge=             -0.0000 electrons
 Dipole moment (field-independent basis, Debye):
    X=             -3.0106    Y=             -4.7847    Z=              0.6229  Tot=              5.6872
 Quadrupole moment (field-independent basis, Debye-Ang):
   XX=           -161.3730   YY=           -251.8696   ZZ=           -208.4594
   XY=             21.1141   XZ=             -3.7793   YZ=              3.2508
 Traceless Quadrupole moment (field-independent basis, Debye-Ang):
   XX=             45.8610   YY=            -44.6356   ZZ=             -1.2254
   XY=             21.1141   XZ=             -3.7793   YZ=              3.2508
 Octapole moment (field-independent basis, Debye-Ang**2):
  XXX=             76.3947  YYY=           -213.7529  ZZZ=              4.3878  XYY=            -13.6119
  XXY=            -86.6928  XXZ=            -21.4166  XZZ=            -47.8841  YZZ=              5.4909
  YYZ=             23.7546  XYZ=            -55.1094
 Hexadecapole moment (field-independent basis, Debye-Ang**3):
 XXXX=         -13943.2559 YYYY=          -6019.0427 ZZZZ=          -3625.3480 XXXY=            652.4602
 XXXZ=            605.6130 YYYX=            508.9124 YYYZ=            195.0271 ZZZX=           -494.3488
 ZZZY=             -5.9345 XXYY=          -3713.5179 XXZZ=          -3532.8297 YYZZ=          -1500.3646
 XXYZ=            -15.5508 YYXZ=             32.0144 ZZXY=             88.4895
 N-N= 4.253368128327D+03 E-N=-1.268735227170D+04  KE= 1.778162862076D+03
 1\1\GINC-C078\SP\RCAM-B3LYP TD-FC\6-31G(d)\C31H20O8\XYCAO\28-Dec-2023\
 0\\# td=(nstates=20,root=20) cam-b3lyp/6-31g(d)\\Title\\0,1\C,0,-6.147
 923,-4.027322,-1.149179\O,0,-4.811209,-3.856297,-0.696291\C,0,-4.29512
 1,-2.600981,-0.666438\C,0,-4.975753,-1.45438,-1.044751\C,0,-4.326586,-
 0.198273,-0.969711\C,0,-2.978962,-0.118872,-0.492305\C,0,-2.311311,1.1
 24643,-0.409172\C,0,-2.964689,2.287123,-0.834649\C,0,-2.2764,3.593374,
 -0.787725\O,0,-2.795901,4.638031,-1.143401\C,0,-4.294087,2.212544,-1.3
 12723\C,0,-4.959825,1.010375,-1.369987\C,0,-2.315945,-1.32328,-0.12562
 7\O,0,-1.002917,-1.327343,0.237547\C,0,-0.349946,-0.12261,0.717117\C,0
 ,1.109891,-0.293255,0.300529\C,0,1.327128,-0.465169,-1.088076\C,0,2.59
 187,-0.621401,-1.588793\C,0,3.717871,-0.606607,-0.725275\C,0,3.524816,
 -0.439598,0.689012\C,0,4.684978,-0.431969,1.5097\C,0,5.937839,-0.59203
 5,0.960914\C,0,6.126758,-0.77026,-0.425726\O,0,7.367954,-0.953807,-0.9
 71693\C,0,5.024456,-0.766188,-1.267481\O,0,5.143484,-0.976162,-2.61997
 \C,0,5.843404,0.035909,-3.353622\C,0,2.177567,-0.285655,1.193226\C,0,1
 .887292,-0.142491,2.658866\O,0,2.757541,-0.091334,3.528115\C,0,-0.5482
 29,-0.077046,2.221315\O,0,-1.856471,-0.02278,2.532313\C,0,-2.223508,0.
 00027,3.912037\C,0,0.483768,-0.074365,3.082228\C,0,-0.9473,1.168686,0.
 124833\C,0,-0.248793,2.325324,0.188311\C,0,-0.817963,3.603674,-0.25743
 7\O,0,-0.194073,4.650646,-0.21154\C,0,-2.954729,-2.536765,-0.204794\H,
 0,-6.347544,-5.098179,-1.08834\H,0,-6.263405,-3.692136,-2.18757\H,0,-6
 .857889,-3.485841,-0.51132\H,0,-5.995693,-1.493375,-1.407814\H,0,-4.76
 926,3.135799,-1.628275\H,0,-5.982798,0.96811,-1.735001\H,0,0.473513,-0
 .481225,-1.757989\H,0,2.756385,-0.764726,-2.650324\H,0,4.57321,-0.3014
 15,2.574835\H,0,6.811589,-0.58908,1.61159\H,0,8.025272,-0.936542,-0.25
 8806\H,0,5.776085,-0.256575,-4.403912\H,0,5.367487,1.015546,-3.216741\
 H,0,6.893456,0.091303,-3.053257\H,0,-1.856726,-0.895347,4.425756\H,0,-
 3.313421,0.019349,3.927028\H,0,-1.827176,0.895746,4.403907\H,0,0.34472
 8,-0.013147,4.155018\H,0,0.762216,2.363799,0.581864\H,0,-2.440702,-3.4
 50101,0.071\\Version=ES64L-G16RevA.03\State=1-A\HF=-1794.221623\RMSD=5
 .470e-09\PG=C01 [X(C31H20O8)]\\@


 Luck is a matter of preparation meeting opportunity.
                                    -- Oprah Winfrey
 Job cpu time:       0 days  4 hours  2 minutes 24.7 seconds.
 Elapsed time:       0 days  0 hours  7 minutes 36.0 seconds.
 File lengths (MBytes):  RWF=   4363 Int=      0 D2E=      0 Chk=    292 Scr=      1
 Normal termination of Gaussian 16 at Thu Dec 28 13:07:48 2023.
