 Entering Gaussian System, Link 0=g16
 Input=molecule_1_1_ECD.com
 Output=molecule_1_1_ECD.log
 Initial command:
 /share/apps/g16/A03/l1.exe "/tmp/954257.tmpdir/scr/Gau-53179.inp" -scrdir="/tmp/954257.tmpdir/scr/"
 Entering Link 1 = /share/apps/g16/A03/l1.exe PID=     53180.
  
 Copyright (c) 1988,1990,1992,1993,1995,1998,2003,2009,2016,
            Gaussian, Inc.  All Rights Reserved.
  
 This is part of the Gaussian(R) 16 program.  It is based on
 the Gaussian(R) 09 system (copyright 2009, Gaussian, Inc.),
 the Gaussian(R) 03 system (copyright 2003, Gaussian, Inc.),
 the Gaussian(R) 98 system (copyright 1998, Gaussian, Inc.),
 the Gaussian(R) 94 system (copyright 1995, Gaussian, Inc.),
 the Gaussian 92(TM) system (copyright 1992, Gaussian, Inc.),
 the Gaussian 90(TM) system (copyright 1990, Gaussian, Inc.),
 the Gaussian 88(TM) system (copyright 1988, Gaussian, Inc.),
 the Gaussian 86(TM) system (copyright 1986, Carnegie Mellon
 University), and the Gaussian 82(TM) system (copyright 1983,
 Carnegie Mellon University). Gaussian is a federally registered
 trademark of Gaussian, Inc.
  
 This software contains proprietary and confidential information,
 including trade secrets, belonging to Gaussian, Inc.
  
 This software is provided under written license and may be
 used, copied, transmitted, or stored only in accord with that
 written license.
  
 The following legend is applicable only to US Government
 contracts under FAR:
  
                    RESTRICTED RIGHTS LEGEND
  
 Use, reproduction and disclosure by the US Government is
 subject to restrictions as set forth in subparagraphs (a)
 and (c) of the Commercial Computer Software - Restricted
 Rights clause in FAR 52.227-19.
  
 Gaussian, Inc.
 340 Quinnipiac St., Bldg. 40, Wallingford CT 06492
  
  
 ---------------------------------------------------------------
 Warning -- This program may not be used in any manner that
 competes with the business of Gaussian, Inc. or will provide
 assistance to any competitor of Gaussian, Inc.  The licensee
 of this program is prohibited from giving any competitor of
 Gaussian, Inc. access to this program.  By using this program,
 the user acknowledges that Gaussian, Inc. is engaged in the
 business of creating and licensing software in the field of
 computational chemistry and represents and warrants to the
 licensee that it is not a competitor of Gaussian, Inc. and that
 it will not use this program in any manner prohibited above.
 ---------------------------------------------------------------
  

 Cite this work as:
 Gaussian 16, Revision A.03,
 M. J. Frisch, G. W. Trucks, H. B. Schlegel, G. E. Scuseria, 
 M. A. Robb, J. R. Cheeseman, G. Scalmani, V. Barone, 
 G. A. Petersson, H. Nakatsuji, X. Li, M. Caricato, A. V. Marenich, 
 J. Bloino, B. G. Janesko, R. Gomperts, B. Mennucci, H. P. Hratchian, 
 J. V. Ortiz, A. F. Izmaylov, J. L. Sonnenberg, D. Williams-Young, 
 F. Ding, F. Lipparini, F. Egidi, J. Goings, B. Peng, A. Petrone, 
 T. Henderson, D. Ranasinghe, V. G. Zakrzewski, J. Gao, N. Rega, 
 G. Zheng, W. Liang, M. Hada, M. Ehara, K. Toyota, R. Fukuda, 
 J. Hasegawa, M. Ishida, T. Nakajima, Y. Honda, O. Kitao, H. Nakai, 
 T. Vreven, K. Throssell, J. A. Montgomery, Jr., J. E. Peralta, 
 F. Ogliaro, M. J. Bearpark, J. J. Heyd, E. N. Brothers, K. N. Kudin, 
 V. N. Staroverov, T. A. Keith, R. Kobayashi, J. Normand, 
 K. Raghavachari, A. P. Rendell, J. C. Burant, S. S. Iyengar, 
 J. Tomasi, M. Cossi, J. M. Millam, M. Klene, C. Adamo, R. Cammi, 
 J. W. Ochterski, R. L. Martin, K. Morokuma, O. Farkas, 
 J. B. Foresman, and D. J. Fox, Gaussian, Inc., Wallingford CT, 2016.
 
 ******************************************
 Gaussian 16:  ES64L-G16RevA.03 25-Dec-2016
                28-Dec-2023 
 ******************************************
 %nprocs=32
 Will use up to   32 processors via shared memory.
 %chk=molecule_1_1_ECD.chk
 %mem=10GB
 --------------------------------------------
 # td=(nstates=20,root=20) cam-b3lyp/6-31g(d)
 --------------------------------------------
 1/38=1,172=1/1;
 2/12=2,17=6,18=5,40=1/2;
 3/5=1,6=6,7=1,11=9,25=1,30=1,74=-40/1,2,3,8;
 4//1;
 5/5=2,38=5/2;
 8/6=1,10=2,107=20,108=20/1;
 9/8=20,41=20,42=1,70=2/14;
 6/7=2,8=2,9=2,10=2/1;
 99/5=1,9=1/99;
 -----
 Title
 -----
 Symbolic Z-matrix:
 Charge =  0 Multiplicity = 1
 C                    -2.84595   1.46292   1.15559 
 C                    -2.32943   0.96609  -0.21345 
 C                    -3.15201  -0.21289  -0.76548 
 C                    -2.87219  -1.517    -0.01035 
 C                    -0.85709   0.60184  -0.14135 
 C                    -0.41628  -0.73181  -0.03553 
 C                     0.94908  -1.0392    0.029 
 C                     1.89629  -0.02017  -0.00814 
 C                     3.33597  -0.38428   0.06399 
 O                     4.15821   0.6993    0.01685 
 O                     3.76746  -1.51455   0.15522 
 C                     1.47728   1.31527  -0.11129 
 C                     0.12033   1.61709  -0.17428 
 O                    -0.32935   2.90819  -0.27574 
 C                    -1.39313  -1.8695    0.0113 
 O                    -1.0147   -3.02758   0.08347 
 H                    -2.76088   0.69148   1.92884 
 H                    -3.90026   1.75383   1.07921 
 H                    -2.27605   2.33548   1.48731 
 H                    -2.42552   1.80653  -0.91098 
 H                    -2.90585  -0.35404  -1.8263 
 H                    -4.22059   0.02915  -0.71999 
 H                    -3.41364  -2.36804  -0.43478 
 H                    -3.20016  -1.43123   1.0361 
 H                     1.25881  -2.07462   0.10869 
 H                     5.0637    0.34169   0.07059 
 H                     2.21681   2.11049  -0.14378 
 H                     0.43336   3.50617  -0.31338 
 
                          Input orientation:                          
 ---------------------------------------------------------------------
 Center     Atomic      Atomic             Coordinates (Angstroms)
 Number     Number       Type             X           Y           Z
 ---------------------------------------------------------------------
      1          6           0       -2.845949    1.462920    1.155591
      2          6           0       -2.329428    0.966092   -0.213447
      3          6           0       -3.152012   -0.212885   -0.765478
      4          6           0       -2.872185   -1.516998   -0.010354
      5          6           0       -0.857088    0.601836   -0.141346
      6          6           0       -0.416277   -0.731811   -0.035534
      7          6           0        0.949082   -1.039195    0.028997
      8          6           0        1.896285   -0.020167   -0.008138
      9          6           0        3.335965   -0.384276    0.063992
     10          8           0        4.158212    0.699298    0.016853
     11          8           0        3.767461   -1.514550    0.155220
     12          6           0        1.477282    1.315266   -0.111289
     13          6           0        0.120326    1.617087   -0.174280
     14          8           0       -0.329348    2.908192   -0.275743
     15          6           0       -1.393126   -1.869496    0.011301
     16          8           0       -1.014696   -3.027580    0.083465
     17          1           0       -2.760876    0.691476    1.928842
     18          1           0       -3.900263    1.753831    1.079209
     19          1           0       -2.276054    2.335475    1.487308
     20          1           0       -2.425518    1.806525   -0.910978
     21          1           0       -2.905847   -0.354041   -1.826296
     22          1           0       -4.220590    0.029147   -0.719992
     23          1           0       -3.413637   -2.368038   -0.434775
     24          1           0       -3.200163   -1.431230    1.036101
     25          1           0        1.258811   -2.074622    0.108691
     26          1           0        5.063696    0.341689    0.070591
     27          1           0        2.216806    2.110493   -0.143784
     28          1           0        0.433356    3.506171   -0.313379
 ---------------------------------------------------------------------
                    Distance matrix (angstroms):
                    1          2          3          4          5
     1  C    0.000000
     2  C    1.545282   0.000000
     3  C    2.567587   1.539925   0.000000
     4  C    3.200004   2.549817   1.532719   0.000000
     5  C    2.525684   1.518442   2.513958   2.926983   0.000000
     6  C    3.484097   2.564113   2.878602   2.578495   1.408590
     7  C    4.683167   3.850790   4.258280   3.851224   2.446273
     8  C    5.103195   4.344135   5.108425   4.997881   2.825897
     9  C    6.543683   5.830707   6.543030   6.311079   4.312340
    10  O    7.137094   6.497206   7.408340   7.371512   5.018741
    11  O    7.321425   6.592538   7.100783   6.641711   5.094457
    12  C    4.507451   3.824055   4.918696   5.191317   2.441141
    13  C    3.254399   2.535079   3.795591   4.336414   1.409666
    14  O    3.235863   2.788540   4.236555   5.110651   2.369778
    15  C    3.811180   2.994617   2.537996   1.520638   2.533401
    16  O    4.966642   4.214984   3.634740   2.396023   3.639786
    17  H    1.095573   2.202490   2.868835   2.941127   2.813916
    18  H    1.096377   2.181517   2.798343   3.597557   3.475307
    19  H    1.093695   2.184176   3.512333   4.176112   2.769744
    20  H    2.136711   1.096408   2.151042   3.472238   2.122164
    21  H    3.492361   2.162474   1.098115   2.156675   2.819605
    22  H    2.731877   2.170472   1.096589   2.170794   3.460628
    23  H    4.186618   3.512964   2.196018   1.094337   3.929656
    24  H    2.918193   2.840194   2.175401   1.099997   3.318093
    25  H    5.518991   4.714358   4.866785   4.170161   3.420961
    26  H    8.062064   7.424880   8.276740   8.151041   5.930285
    27  H    5.266803   4.688577   5.882924   6.250946   3.424161
    28  H    4.133593   3.754326   5.185618   6.020851   3.182767
                    6          7          8          9         10
     6  C    0.000000
     7  C    1.401019   0.000000
     8  C    2.419738   1.391758   0.000000
     9  C    3.769616   2.475349   1.486760   0.000000
    10  O    4.793409   3.649797   2.373725   1.361045   0.000000
    11  O    4.260602   2.860971   2.400243   1.213273   2.252322
    12  C    2.789593   2.417056   1.403419   2.524652   2.753765
    13  C    2.413403   2.789981   2.421205   3.795071   4.145285
    14  O    3.648956   4.160422   3.687864   4.938652   5.010291
    15  C    1.500252   2.485086   3.773675   4.957112   6.116869
    16  O    2.375462   2.795186   4.186494   5.090745   6.375973
    17  H    3.373672   4.513139   5.093866   6.465785   7.178408
    18  H    4.422581   5.693864   6.158682   7.613486   8.196320
    19  H    3.896930   4.890457   5.019345   6.396689   6.799933
    20  H    3.353595   4.513269   4.778065   6.240582   6.740350
    21  H    3.089903   4.332670   5.145643   6.521834   7.376154
    22  H    3.939586   5.331777   6.158354   7.608355   8.437794
    23  H    3.438139   4.584128   5.821494   7.052745   8.182018
    24  H    3.063921   4.287678   5.390298   6.690447   7.728111
    25  H    2.151711   1.083694   2.154253   2.678402   4.013676
    26  H    5.585138   4.340348   3.188986   1.874066   0.975025
    27  H    3.876021   3.399634   2.158899   2.742182   2.405480
    28  H    4.331231   4.587325   3.829934   4.868586   4.675697
                   11         12         13         14         15
    11  O    0.000000
    12  C    3.650179   0.000000
    13  C    4.818435   1.391544   0.000000
    14  O    6.044023   2.414202   1.370932   0.000000
    15  C    5.174781   4.289170   3.805422   4.903093   0.000000
    16  O    5.016317   5.010808   4.788281   5.985994   1.220482
    17  H    7.115579   4.744811   3.685268   3.960600   3.479408
    18  H    8.386302   5.525180   4.213676   3.989972   4.533725
    19  H    7.288431   4.205219   3.003264   2.688125   4.543120
    20  H    7.107693   4.014061   2.657053   2.451759   3.928048
    21  H    7.057353   4.993962   3.971426   4.436747   2.821647
    22  H    8.182784   5.872850   4.654343   4.860866   3.483416
    23  H    7.255667   6.131269   5.332727   6.113651   2.128378
    24  H    7.023580   5.544207   4.667216   5.365920   2.123129
    25  H    2.570831   3.404036   3.873621   5.243899   2.661641
    26  H    2.265615   3.720658   5.111116   5.982626   6.825204
    27  H    3.954095   1.086433   2.153975   2.671448   5.375497
    28  H    6.045120   2.435300   1.919889   0.969903   5.686761
                   16         17         18         19         20
    16  O    0.000000
    17  H    4.503991   0.000000
    18  H    5.672733   1.774451   0.000000
    19  H    5.685434   1.769954   1.772825   0.000000
    20  H    5.133021   3.069263   2.477598   2.460468   0.000000
    21  H    3.790970   3.900665   3.724775   4.313943   2.395113
    22  H    4.501875   3.096089   2.512821   3.737986   2.533344
    23  H    2.541355   3.920894   4.418004   5.206874   4.316263
    24  H    2.869166   2.344321   3.261382   3.904566   3.856715
    25  H    2.465279   5.207891   6.497307   5.817629   5.447688
    26  H    6.949747   8.049806   9.130390   7.736550   7.693994
    27  H    6.074047   5.575545   6.248316   4.785067   4.715099
    28  H    6.704047   4.811775   4.877525   3.457442   3.379213
                   21         22         23         24         25
    21  H    0.000000
    22  H    1.760480   0.000000
    23  H    2.500073   2.545391   0.000000
    24  H    3.072503   2.501566   1.756888   0.000000
    25  H    4.903973   5.927596   4.713090   4.599619   0.000000
    26  H    8.221669   9.323126   8.914213   8.506869   4.507456
    27  H    5.928436   6.789999   7.200264   6.578714   4.300777
    28  H    5.323573   5.823594   7.022850   6.277060   5.657276
                   26         27         28
    26  H    0.000000
    27  H    3.358483   0.000000
    28  H    5.621515   2.270985   0.000000
 Stoichiometry    C12H12O4
 Framework group  C1[X(C12H12O4)]
 Deg. of freedom    78
 Full point group                 C1      NOp   1
 Largest Abelian subgroup         C1      NOp   1
 Largest concise Abelian subgroup C1      NOp   1
                         Standard orientation:                         
 ---------------------------------------------------------------------
 Center     Atomic      Atomic             Coordinates (Angstroms)
 Number     Number       Type             X           Y           Z
 ---------------------------------------------------------------------
      1          6           0        2.845949   -1.462920    1.155591
      2          6           0        2.329428   -0.966092   -0.213447
      3          6           0        3.152012    0.212885   -0.765478
      4          6           0        2.872185    1.516998   -0.010354
      5          6           0        0.857088   -0.601836   -0.141346
      6          6           0        0.416277    0.731811   -0.035534
      7          6           0       -0.949082    1.039195    0.028997
      8          6           0       -1.896285    0.020167   -0.008138
      9          6           0       -3.335965    0.384276    0.063992
     10          8           0       -4.158212   -0.699298    0.016853
     11          8           0       -3.767461    1.514550    0.155220
     12          6           0       -1.477282   -1.315266   -0.111289
     13          6           0       -0.120326   -1.617087   -0.174280
     14          8           0        0.329348   -2.908192   -0.275743
     15          6           0        1.393126    1.869496    0.011301
     16          8           0        1.014696    3.027580    0.083465
     17          1           0        2.760876   -0.691476    1.928842
     18          1           0        3.900263   -1.753831    1.079209
     19          1           0        2.276054   -2.335475    1.487308
     20          1           0        2.425518   -1.806525   -0.910978
     21          1           0        2.905847    0.354041   -1.826296
     22          1           0        4.220590   -0.029147   -0.719992
     23          1           0        3.413637    2.368038   -0.434775
     24          1           0        3.200163    1.431230    1.036101
     25          1           0       -1.258811    2.074622    0.108691
     26          1           0       -5.063696   -0.341689    0.070591
     27          1           0       -2.216806   -2.110493   -0.143784
     28          1           0       -0.433356   -3.506171   -0.313379
 ---------------------------------------------------------------------
 Rotational constants (GHZ):           0.8539577           0.3875959           0.2781516
 Standard basis: 6-31G(d) (6D, 7F)
 There are   264 symmetry adapted cartesian basis functions of A   symmetry.
 There are   264 symmetry adapted basis functions of A   symmetry.
   264 basis functions,   496 primitive gaussians,   264 cartesian basis functions
    58 alpha electrons       58 beta electrons
       nuclear repulsion energy      1084.2341517350 Hartrees.
 NAtoms=   28 NActive=   28 NUniq=   28 SFac= 1.00D+00 NAtFMM=   60 NAOKFM=F Big=F
 Integral buffers will be    131072 words long.
 Raffenetti 1 integral format.
 Two-electron integral symmetry is turned on.
 One-electron integrals computed using PRISM.
 NBasis=   264 RedAO= T EigKep=  3.42D-04  NBF=   264
 NBsUse=   264 1.00D-06 EigRej= -1.00D+00 NBFU=   264
 ExpMin= 1.61D-01 ExpMax= 5.48D+03 ExpMxC= 8.25D+02 IAcc=3 IRadAn=         5 AccDes= 0.00D+00
 Harris functional with IExCor=20419 and IRadAn=       5 diagonalized for initial guess.
 HarFok:  IExCor=20419 AccDes= 0.00D+00 IRadAn=         5 IDoV= 1 UseB2=F ITyADJ=14
 ICtDFT=  3500011 ScaDFX=  1.000000  1.000000  1.000000  1.000000
 FoFCou: FMM=F IPFlag=           0 FMFlag=      100000 FMFlg1=           0
         NFxFlg=           0 DoJE=T BraDBF=F KetDBF=T FulRan=T
         wScrn=  0.000000 ICntrl=       500 IOpCl=  0 I1Cent=   200000004 NGrid=           0
         NMat0=    1 NMatS0=      1 NMatT0=    0 NMatD0=    1 NMtDS0=    0 NMtDT0=    0
 Petite list used in FoFCou.
 Requested convergence on RMS density matrix=1.00D-08 within 128 cycles.
 Requested convergence on MAX density matrix=1.00D-06.
 Requested convergence on             energy=1.00D-06.
 No special actions if energy rises.
 Integral accuracy reduced to 1.0D-05 until final iterations.
 Initial convergence to 1.0D-05 achieved.  Increase integral accuracy.
 SCF Done:  E(RCAM-B3LYP) =  -765.066761407     A.U. after   15 cycles
            NFock= 15  Conv=0.59D-08     -V/T= 2.0091
 DoSCS=F DFT=T ScalE2(SS,OS)=  1.000000  1.000000
 ExpMin= 1.61D-01 ExpMax= 5.48D+03 ExpMxC= 8.25D+02 IAcc=3 IRadAn=         5 AccDes= 0.00D+00
 HarFok:  IExCor=  205 AccDes= 0.00D+00 IRadAn=         5 IDoV=-2 UseB2=F ITyADJ=14
 ICtDFT= 12500011 ScaDFX=  1.000000  1.000000  1.000000  1.000000
 Range of M.O.s used for correlation:    17   264
 NBasis=   264 NAE=    58 NBE=    58 NFC=    16 NFV=     0
 NROrb=    248 NOA=    42 NOB=    42 NVA=   206 NVB=   206
 Orbital symmetries:
       Occupied  (A) (A) (A) (A) (A) (A) (A) (A) (A) (A) (A) (A)
                 (A) (A) (A) (A) (A) (A) (A) (A) (A) (A) (A) (A)
                 (A) (A) (A) (A) (A) (A) (A) (A) (A) (A) (A) (A)
                 (A) (A) (A) (A) (A) (A) (A) (A) (A) (A) (A) (A)
                 (A) (A) (A) (A) (A) (A) (A) (A) (A) (A)
       Virtual   (A) (A) (A) (A) (A) (A) (A) (A) (A) (A) (A) (A)
                 (A) (A) (A) (A) (A) (A) (A) (A) (A) (A) (A) (A)
                 (A) (A) (A) (A) (A) (A) (A) (A) (A) (A) (A) (A)
                 (A) (A) (A) (A) (A) (A) (A) (A) (A) (A) (A) (A)
                 (A) (A) (A) (A) (A) (A) (A) (A) (A) (A) (A) (A)
                 (A) (A) (A) (A) (A) (A) (A) (A) (A) (A) (A) (A)
                 (A) (A) (A) (A) (A) (A) (A) (A) (A) (A) (A) (A)
                 (A) (A) (A) (A) (A) (A) (A) (A) (A) (A) (A) (A)
                 (A) (A) (A) (A) (A) (A) (A) (A) (A) (A) (A) (A)
                 (A) (A) (A) (A) (A) (A) (A) (A) (A) (A) (A) (A)
                 (A) (A) (A) (A) (A) (A) (A) (A) (A) (A) (A) (A)
                 (A) (A) (A) (A) (A) (A) (A) (A) (A) (A) (A) (A)
                 (A) (A) (A) (A) (A) (A) (A) (A) (A) (A) (A) (A)
                 (A) (A) (A) (A) (A) (A) (A) (A) (A) (A) (A) (A)
                 (A) (A) (A) (A) (A) (A) (A) (A) (A) (A) (A) (A)
                 (A) (A) (A) (A) (A) (A) (A) (A) (A) (A) (A) (A)
                 (A) (A) (A) (A) (A) (A) (A) (A) (A) (A) (A) (A)
                 (A) (A)
    80 initial guesses have been made.
 Convergence on wavefunction:    0.001000000000000
 Iteration     1 Dimension    80 NMult     0 NNew     80
 CISAX will form    80 AO SS matrices at one time.
 New state      1 was old state      2
 New state      2 was old state      1
 New state      3 was old state      7
 New state      4 was old state      5
 New state      5 was old state      3
 New state      6 was old state      4
 New state      7 was old state      6
 New state      9 was old state     10
 New state     10 was old state     13
 New state     11 was old state     16
 New state     12 was old state     17
 New state     13 was old state     11
 New state     14 was old state      9
 New state     15 was old state     18
 New state     16 was old state     14
 New state     17 was old state     12
 New state     18 was old state     21
 New state     19 was old state     20
 New state     20 was old state     26
 Iteration     2 Dimension   120 NMult    80 NNew     40
 New state      4 was old state      5
 New state      5 was old state      4
 New state     12 was old state     14
 New state     13 was old state     12
 New state     14 was old state     17
 New state     15 was old state     13
 New state     17 was old state     15
 New state     20 was old state     21
 Iteration     3 Dimension   160 NMult   120 NNew     40
 Iteration     4 Dimension   200 NMult   160 NNew     40
 Iteration     5 Dimension   230 NMult   200 NNew     30
 Iteration     6 Dimension   234 NMult   230 NNew      4
 ***********************************************************************
 Excited states from <AA,BB:AA,BB> singles matrix:
 ***********************************************************************
 
 Ground to excited state transition densities written to RWF  633
 Ground to excited state transition electric dipole moments (Au):
       state          X           Y           Z        Dip. S.      Osc.
         1         0.0154     -0.0025      0.0151      0.0005      0.0000
         2        -0.9180     -0.0387     -0.0064      0.8443      0.0927
         3         0.0182     -0.0076     -0.0394      0.0019      0.0002
         4        -0.3515      0.3777     -0.0155      0.2665      0.0345
         5         0.0260     -0.5145     -0.0558      0.2685      0.0381
         6        -0.3694     -1.2863     -0.0302      1.7919      0.2552
         7         1.9692      0.0081     -0.0150      3.8781      0.5712
         8        -0.0363      0.0464     -0.0373      0.0049      0.0008
         9        -0.0292     -0.1071      0.0212      0.0128      0.0022
        10         0.0889     -0.0974      0.0610      0.0211      0.0037
        11        -0.0875      0.0654     -0.0247      0.0125      0.0022
        12        -0.0234     -0.1367     -0.0413      0.0209      0.0038
        13        -0.2579      0.4778      0.0538      0.2977      0.0542
        14         0.5098     -0.9529     -0.0972      1.1774      0.2155
        15         0.1125      0.0879     -0.0514      0.0230      0.0043
        16        -0.0610      0.5630      0.0250      0.3213      0.0599
        17        -0.0073      0.1101      0.0360      0.0135      0.0026
        18        -0.0288      0.0205      0.0578      0.0046      0.0009
        19         0.3675     -0.0248     -0.0154      0.1359      0.0267
        20        -0.0271     -0.0545     -0.0116      0.0038      0.0008
 Ground to excited state transition velocity dipole moments (Au):
       state          X           Y           Z        Dip. S.      Osc.
         1        -0.0046      0.0024     -0.0013      0.0000      0.0001
         2         0.1519      0.0036      0.0010      0.0231      0.0934
         3        -0.0030      0.0008      0.0136      0.0002      0.0007
         4         0.0646     -0.0644      0.0036      0.0083      0.0286
         5        -0.0058      0.1107      0.0161      0.0126      0.0394
         6         0.0742      0.2730      0.0039      0.0800      0.2498
         7        -0.4240      0.0033      0.0025      0.1798      0.5424
         8         0.0086     -0.0108      0.0098      0.0003      0.0008
         9         0.0034      0.0289     -0.0082      0.0009      0.0024
        10        -0.0221      0.0233     -0.0108      0.0011      0.0029
        11         0.0217     -0.0192      0.0536      0.0037      0.0093
        12         0.0076      0.0287      0.0122      0.0010      0.0025
        13         0.0623     -0.1241     -0.0223      0.0198      0.0482
        14        -0.1329      0.2455      0.0273      0.0787      0.1911
        15        -0.0252     -0.0187      0.0149      0.0012      0.0029
        16         0.0174     -0.1487     -0.0068      0.0225      0.0536
        17         0.0019     -0.0307     -0.0051      0.0010      0.0023
        18         0.0047     -0.0060     -0.0113      0.0002      0.0004
        19        -0.1106      0.0043      0.0052      0.0123      0.0278
        20         0.0012      0.0162      0.0035      0.0003      0.0006
 Ground to excited state transition magnetic dipole moments (Au):
       state          X           Y           Z
         1        -0.2366      0.8404     -0.0468
         2        -0.0133     -0.0229      0.1394
         3         0.3399     -0.5289     -0.0566
         4        -0.0125     -0.0568      0.0422
         5         0.0953     -0.0929     -0.3258
         6         0.0510      0.0576     -0.4461
         7        -0.0245      0.1574     -0.3739
         8        -0.0016     -0.0786     -0.0516
         9         0.0555      0.1557      0.2105
        10         0.0975      0.5540      0.1713
        11        -0.5973     -0.0549      0.1516
        12        -0.0454     -0.0789     -0.5765
        13        -0.3667      0.4871      0.0124
        14        -0.1242      0.2365     -0.8414
        15        -0.2756     -0.0629      0.5221
        16         0.0805      0.0780     -0.3402
        17        -0.0925      0.0773     -0.1698
        18         0.1135      0.0575     -0.0569
        19        -0.0324     -0.0519     -0.0822
        20         0.0068      0.0163     -0.0371
 Ground to excited state transition velocity quadrupole moments (Au):
       state          XX          YY          ZZ          XY          XZ          YZ
         1         0.0015      0.0183     -0.0082     -0.0115     -0.0505     -0.0193
         2        -0.2345      0.0930      0.0317     -0.0872      0.0178     -0.0182
         3         0.0128      0.0094     -0.0001      0.0033     -0.0519      0.0179
         4        -0.3615     -0.4231      0.0930     -0.1135      0.0584     -0.0644
         5        -0.0101     -0.1121      0.0056     -0.0211      0.0348     -0.0119
         6        -0.1931      0.0284     -0.0126      0.1012     -0.0587     -0.0166
         7         1.1008     -0.6622     -0.0785     -0.3387     -0.0758      0.0183
         8         0.0961     -0.0104     -0.0020     -0.0081      0.0455     -0.0116
         9        -0.1942      0.1781     -0.0340      0.1417     -0.0386      0.0072
        10        -0.1808      0.0473     -0.0054      0.0218     -0.1504      0.0219
        11        -0.1995      0.1088     -0.0693      0.0777     -0.0012     -0.3485
        12         0.3615      0.0640      0.0173     -1.1535     -0.0369     -0.0041
        13        -0.5399      0.2872     -0.0260      0.0488     -0.0007      0.0085
        14         1.3349     -0.7019      0.0399     -0.4231     -0.0349     -0.1382
        15         0.8046     -0.3236      0.0189     -0.2288      0.0264     -0.1732
        16         0.6320     -0.7455      0.0649      0.1852      0.0458      0.0330
        17         0.0409     -0.1016      0.0214     -0.1045     -0.0463      0.0687
        18         0.1896     -0.0699     -0.0112      0.2110     -0.0820      0.0258
        19         0.2586      0.1205     -0.0134      0.3415      0.0090     -0.0209
        20         0.5851      0.0980      0.0018     -0.3028     -0.0176      0.0007
 <0|del|b> * <b|rxdel|0> + <0|del|b> * <b|delr+rdel|0>
 Rotatory Strengths (R) in cgs (10**-40 erg-esu-cm/Gauss)
       state          XX          YY          ZZ    R(velocity)    E-M Angle
         1         5.5153      3.0497      7.2038      5.2563       47.50
         2        -0.2104     -9.8032      1.5349     -2.8262       95.26
         3        -2.0349     -3.5045     -2.6306     -2.7233      104.48
         4        13.0376     -8.0291      5.9221      3.6436       62.78
         5       -32.7874     -8.9591    -11.7333    -17.8266      114.08
         6        50.2969      0.6528      7.8067     19.5855       82.03
         7        -1.6278      4.0660     29.4993     10.6458       86.68
         8         1.0695     -0.7720      0.6327      0.3100       78.18
         9         3.7415     -0.4752      4.8584      2.7082       68.47
        10        19.3222     -5.7360     10.4279      8.0047       63.46
        11        17.7472    -22.1025     -5.7712     -3.3755       95.79
        12       -29.0448      8.6772     -4.7209     -8.3628      121.05
        13       -80.0889    -27.7975   -108.3402    -72.0755      167.00
        14        41.4311     30.2385     61.3592     44.3429       77.96
        15         7.6864     28.6438      4.1490     13.4931       39.51
        16        -4.7184      7.0423    -22.2311     -6.6358       98.43
        17        -2.9643      0.3528     -1.5485     -1.3866      105.06
        18        -3.1291      4.4685      0.6819      0.6738       64.00
        19         1.2903      4.4456      1.2922      2.3427       75.04
        20        -0.7581      1.1146     -0.0176      0.1130       77.96
 1/2[<0|r|b>*<b|rxdel|0> + (<0|rxdel|b>*<b|r|0>)*]
 Rotatory Strengths (R) in cgs (10**-40 erg-esu-cm/Gauss)
       state          XX          YY          ZZ     R(length)
         1         2.5847      1.4760      0.5001      1.5202
         2        -8.6522     -0.6269      0.6308     -2.8828
         3        -4.3660     -2.8251     -1.5773     -2.9228
         4        -3.1145     15.1710      0.4622      4.1729
         5        -1.7526    -33.8046    -12.8441    -16.1338
         6        13.3180     52.3915     -9.5435     18.7220
         7        34.1450     -0.8983     -3.9778      9.7563
         8        -0.0406      2.5803     -1.3611      0.3929
         9         1.1459     11.7860     -3.1614      3.2568
        10        -6.1292     38.1357     -7.3839      8.2075
        11       -36.9500      2.5382      2.6513    -10.5868
        12        -0.7515     -7.6283    -16.8249     -8.4016
        13       -66.8902   -164.5888     -0.4704    -77.3165
        14        44.7896    159.3959    -57.8158     48.7899
        15        21.9345      3.9075     18.9643     14.9355
        16         3.4751    -31.0395      6.0126     -7.1839
        17        -0.4758     -6.0187      4.3266     -0.7226
        18         2.3081     -0.8347      2.3263      1.2665
        19         8.4138     -0.9086     -0.8947      2.2035
        20         0.1308      0.6284     -0.3039      0.1518
  1/2[<0|del|b>*<b|r|0> + (<0|r|b>*<b|del|0>)*] (Au)
       state          X           Y           Z        Dip. S.   Osc.(frdel)
         1        -0.0001     -0.0000     -0.0000      0.0001      0.0001
         2        -0.1395     -0.0001     -0.0000      0.1396      0.0931
         3        -0.0001     -0.0000     -0.0005      0.0006      0.0004
         4        -0.0227     -0.0243     -0.0001      0.0471      0.0314
         5        -0.0002     -0.0570     -0.0009      0.0580      0.0387
         6        -0.0274     -0.3511     -0.0001      0.3786      0.2524
         7        -0.8349      0.0000     -0.0000      0.8349      0.5566
         8        -0.0003     -0.0005     -0.0004      0.0012      0.0008
         9        -0.0001     -0.0031     -0.0002      0.0034      0.0022
        10        -0.0020     -0.0023     -0.0007      0.0049      0.0033
        11        -0.0019     -0.0013     -0.0013      0.0045      0.0030
        12        -0.0002     -0.0039     -0.0005      0.0046      0.0031
        13        -0.0161     -0.0593     -0.0012      0.0766      0.0510
        14        -0.0678     -0.2340     -0.0027      0.3044      0.2029
        15        -0.0028     -0.0016     -0.0008      0.0052      0.0035
        16        -0.0011     -0.0837     -0.0002      0.0850      0.0566
        17        -0.0000     -0.0034     -0.0002      0.0036      0.0024
        18        -0.0001     -0.0001     -0.0007      0.0009      0.0006
        19        -0.0407     -0.0001     -0.0001      0.0408      0.0272
        20        -0.0000     -0.0009     -0.0000      0.0010      0.0006

 Excitation energies and oscillator strengths:
 
 Excited State   1:      Singlet-A      3.8360 eV  323.21 nm  f=0.0000  <S**2>=0.000
      57 -> 59         0.55691
      57 -> 60        -0.35937
      57 -> 61         0.17896
 
 Excited State   2:      Singlet-A      4.4823 eV  276.61 nm  f=0.0927  <S**2>=0.000
      56 -> 60         0.23156
      58 -> 59         0.65641
 
 Excited State   3:      Singlet-A      5.1752 eV  239.57 nm  f=0.0002  <S**2>=0.000
      55 -> 59         0.46179
      55 -> 60         0.45885
      55 -> 61        -0.14476
      55 -> 64        -0.18068
 
 Excited State   4:      Singlet-A      5.2844 eV  234.62 nm  f=0.0345  <S**2>=0.000
      56 -> 59        -0.46301
      58 -> 60         0.51525
 
 Excited State   5:      Singlet-A      5.7887 eV  214.18 nm  f=0.0381  <S**2>=0.000
      56 -> 59         0.13698
      57 -> 59         0.36626
      57 -> 60         0.51938
      58 -> 60         0.20785
 
 Excited State   6:      Singlet-A      5.8125 eV  213.31 nm  f=0.2552  <S**2>=0.000
      56 -> 59         0.48655
      57 -> 60        -0.22165
      58 -> 60         0.42686
 
 Excited State   7:      Singlet-A      6.0117 eV  206.24 nm  f=0.5712  <S**2>=0.000
      56 -> 60         0.64607
      58 -> 59        -0.23468
 
 Excited State   8:      Singlet-A      6.7525 eV  183.61 nm  f=0.0008  <S**2>=0.000
      51 -> 59        -0.19927
      52 -> 59         0.14610
      53 -> 59         0.15522
      55 -> 59         0.43564
      55 -> 60        -0.40661
      57 -> 61        -0.11268
 
 Excited State   9:      Singlet-A      7.0264 eV  176.46 nm  f=0.0022  <S**2>=0.000
      48 -> 59        -0.13479
      51 -> 59         0.31489
      52 -> 59        -0.13121
      53 -> 59         0.54284
      53 -> 60        -0.11287
      54 -> 59        -0.11253
 
 Excited State  10:      Singlet-A      7.1246 eV  174.02 nm  f=0.0037  <S**2>=0.000
      51 -> 59         0.36825
      52 -> 59        -0.29992
      53 -> 59        -0.25028
      55 -> 59         0.24602
      55 -> 60        -0.25374
      57 -> 61         0.16554
 
 Excited State  11:      Singlet-A      7.2264 eV  171.57 nm  f=0.0022  <S**2>=0.000
      50 -> 62         0.11231
      58 -> 61        -0.10388
      58 -> 62         0.66401
 
 Excited State  12:      Singlet-A      7.4037 eV  167.46 nm  f=0.0038  <S**2>=0.000
      50 -> 59         0.17771
      54 -> 59         0.58194
      54 -> 60         0.23418
      58 -> 61        -0.15911
 
 Excited State  13:      Singlet-A      7.4375 eV  166.70 nm  f=0.0542  <S**2>=0.000
      50 -> 59        -0.10017
      51 -> 60        -0.10385
      52 -> 59         0.24138
      53 -> 59         0.12263
      57 -> 59        -0.13598
      57 -> 61         0.45466
      57 -> 64        -0.19530
      58 -> 61        -0.28830
 
 Excited State  14:      Singlet-A      7.4712 eV  165.95 nm  f=0.2155  <S**2>=0.000
      52 -> 59         0.14815
      54 -> 59         0.13876
      54 -> 60         0.14626
      57 -> 61         0.20410
      58 -> 61         0.57749
 
 Excited State  15:      Singlet-A      7.5697 eV  163.79 nm  f=0.0043  <S**2>=0.000
      50 -> 59         0.48596
      51 -> 59        -0.25516
      52 -> 59        -0.14235
      52 -> 60         0.12572
      54 -> 60        -0.16592
      56 -> 61        -0.24357
      57 -> 61         0.13344
 
 Excited State  16:      Singlet-A      7.6051 eV  163.03 nm  f=0.0599  <S**2>=0.000
      50 -> 59         0.28684
      51 -> 59         0.31596
      52 -> 59         0.45985
      52 -> 60        -0.11880
      53 -> 59        -0.13434
      54 -> 60        -0.16579
 
 Excited State  17:      Singlet-A      7.8037 eV  158.88 nm  f=0.0026  <S**2>=0.000
      45 -> 60        -0.11442
      47 -> 59        -0.15934
      48 -> 60        -0.23945
      49 -> 59         0.15876
      49 -> 60         0.17276
      51 -> 60         0.33835
      52 -> 60        -0.15024
      53 -> 60         0.38489
 
 Excited State  18:      Singlet-A      7.9457 eV  156.04 nm  f=0.0009  <S**2>=0.000
      45 -> 59         0.17034
      48 -> 59         0.16287
      51 -> 60         0.35158
      52 -> 60        -0.28489
      53 -> 60        -0.31912
      57 -> 61         0.13578
 
 Excited State  19:      Singlet-A      8.0255 eV  154.49 nm  f=0.0267  <S**2>=0.000
      50 -> 59         0.20100
      52 -> 60         0.11805
      56 -> 61         0.55823
      58 -> 64         0.26661
 
 Excited State  20:      Singlet-A      8.0876 eV  153.30 nm  f=0.0008  <S**2>=0.000
      50 -> 60         0.24186
      54 -> 59        -0.26330
      54 -> 60         0.53777
      56 -> 61        -0.12550
      58 -> 61        -0.11713
 This state for optimization and/or second-order correction.
 Total Energy, E(TD-HF/TD-DFT) =  -764.769546814    
 Copying the excited state density for this state as the 1-particle RhoCI density.
 SavETr:  write IOETrn=   770 NScale= 10 NData=  16 NLR=1 NState=   20 LETran=     370.

 **********************************************************************

            Population analysis using the SCF density.

 **********************************************************************

 Orbital symmetries:
       Occupied  (A) (A) (A) (A) (A) (A) (A) (A) (A) (A) (A) (A)
                 (A) (A) (A) (A) (A) (A) (A) (A) (A) (A) (A) (A)
                 (A) (A) (A) (A) (A) (A) (A) (A) (A) (A) (A) (A)
                 (A) (A) (A) (A) (A) (A) (A) (A) (A) (A) (A) (A)
                 (A) (A) (A) (A) (A) (A) (A) (A) (A) (A)
       Virtual   (A) (A) (A) (A) (A) (A) (A) (A) (A) (A) (A) (A)
                 (A) (A) (A) (A) (A) (A) (A) (A) (A) (A) (A) (A)
                 (A) (A) (A) (A) (A) (A) (A) (A) (A) (A) (A) (A)
                 (A) (A) (A) (A) (A) (A) (A) (A) (A) (A) (A) (A)
                 (A) (A) (A) (A) (A) (A) (A) (A) (A) (A) (A) (A)
                 (A) (A) (A) (A) (A) (A) (A) (A) (A) (A) (A) (A)
                 (A) (A) (A) (A) (A) (A) (A) (A) (A) (A) (A) (A)
                 (A) (A) (A) (A) (A) (A) (A) (A) (A) (A) (A) (A)
                 (A) (A) (A) (A) (A) (A) (A) (A) (A) (A) (A) (A)
                 (A) (A) (A) (A) (A) (A) (A) (A) (A) (A) (A) (A)
                 (A) (A) (A) (A) (A) (A) (A) (A) (A) (A) (A) (A)
                 (A) (A) (A) (A) (A) (A) (A) (A) (A) (A) (A) (A)
                 (A) (A) (A) (A) (A) (A) (A) (A) (A) (A) (A) (A)
                 (A) (A) (A) (A) (A) (A) (A) (A) (A) (A) (A) (A)
                 (A) (A) (A) (A) (A) (A) (A) (A) (A) (A) (A) (A)
                 (A) (A) (A) (A) (A) (A) (A) (A) (A) (A) (A) (A)
                 (A) (A) (A) (A) (A) (A) (A) (A) (A) (A) (A) (A)
                 (A) (A)
 The electronic state is 1-A.
 Alpha  occ. eigenvalues --  -19.27364 -19.26750 -19.21438 -19.20793 -10.40324
 Alpha  occ. eigenvalues --  -10.34998 -10.34073 -10.29087 -10.28940 -10.28638
 Alpha  occ. eigenvalues --  -10.28056 -10.27796 -10.27330 -10.26753 -10.26577
 Alpha  occ. eigenvalues --  -10.25565  -1.18959  -1.15553  -1.11482  -1.09551
 Alpha  occ. eigenvalues --   -0.96177  -0.91528  -0.85157  -0.84728  -0.82182
 Alpha  occ. eigenvalues --   -0.75380  -0.74445  -0.72343  -0.67882  -0.66347
 Alpha  occ. eigenvalues --   -0.62362  -0.59683  -0.58412  -0.56207  -0.55076
 Alpha  occ. eigenvalues --   -0.54665  -0.54017  -0.52505  -0.50902  -0.50360
 Alpha  occ. eigenvalues --   -0.49480  -0.48764  -0.48132  -0.47344  -0.45869
 Alpha  occ. eigenvalues --   -0.45671  -0.45172  -0.44060  -0.43685  -0.40551
 Alpha  occ. eigenvalues --   -0.40275  -0.39261  -0.38912  -0.38443  -0.34618
 Alpha  occ. eigenvalues --   -0.31729  -0.30787  -0.28937
 Alpha virt. eigenvalues --   -0.01771   0.00643   0.08663   0.10238   0.12277
 Alpha virt. eigenvalues --    0.12394   0.13955   0.16447   0.17311   0.18877
 Alpha virt. eigenvalues --    0.20656   0.21285   0.21679   0.23394   0.23789
 Alpha virt. eigenvalues --    0.24739   0.25646   0.26605   0.27520   0.28765
 Alpha virt. eigenvalues --    0.29214   0.30097   0.31441   0.32512   0.33654
 Alpha virt. eigenvalues --    0.35643   0.38102   0.40082   0.40948   0.43083
 Alpha virt. eigenvalues --    0.48443   0.50527   0.53354   0.54411   0.54791
 Alpha virt. eigenvalues --    0.55409   0.56597   0.58318   0.59409   0.60539
 Alpha virt. eigenvalues --    0.61356   0.62930   0.64219   0.64507   0.65997
 Alpha virt. eigenvalues --    0.66720   0.67697   0.68666   0.69685   0.72152
 Alpha virt. eigenvalues --    0.73134   0.73469   0.75195   0.76518   0.77587
 Alpha virt. eigenvalues --    0.78852   0.79606   0.81407   0.82032   0.82677
 Alpha virt. eigenvalues --    0.85049   0.85477   0.85631   0.88290   0.88534
 Alpha virt. eigenvalues --    0.89235   0.91066   0.91602   0.93359   0.95138
 Alpha virt. eigenvalues --    0.95541   0.96256   0.96636   0.96756   0.98508
 Alpha virt. eigenvalues --    0.98882   0.99460   1.02203   1.02941   1.04159
 Alpha virt. eigenvalues --    1.05082   1.05918   1.06700   1.09500   1.10794
 Alpha virt. eigenvalues --    1.10918   1.11942   1.15038   1.16074   1.16986
 Alpha virt. eigenvalues --    1.18225   1.23812   1.24092   1.28620   1.29893
 Alpha virt. eigenvalues --    1.32718   1.36066   1.36741   1.37324   1.40147
 Alpha virt. eigenvalues --    1.41615   1.43102   1.43253   1.46110   1.46984
 Alpha virt. eigenvalues --    1.47856   1.51472   1.52882   1.53389   1.54701
 Alpha virt. eigenvalues --    1.58756   1.62457   1.70733   1.71880   1.73812
 Alpha virt. eigenvalues --    1.75345   1.75604   1.77137   1.78972   1.80331
 Alpha virt. eigenvalues --    1.80575   1.81919   1.83347   1.84667   1.85374
 Alpha virt. eigenvalues --    1.87827   1.88759   1.89417   1.91003   1.91147
 Alpha virt. eigenvalues --    1.93240   1.94196   1.96540   1.96868   1.98013
 Alpha virt. eigenvalues --    1.99550   2.00269   2.01029   2.02873   2.05485
 Alpha virt. eigenvalues --    2.07050   2.08938   2.10684   2.12250   2.13665
 Alpha virt. eigenvalues --    2.15622   2.17386   2.19138   2.24488   2.25340
 Alpha virt. eigenvalues --    2.28811   2.31743   2.33380   2.35463   2.36709
 Alpha virt. eigenvalues --    2.37994   2.40507   2.42060   2.43379   2.45646
 Alpha virt. eigenvalues --    2.47217   2.48292   2.50010   2.51570   2.52747
 Alpha virt. eigenvalues --    2.54462   2.58786   2.60137   2.63225   2.65218
 Alpha virt. eigenvalues --    2.69955   2.70787   2.72012   2.74538   2.77194
 Alpha virt. eigenvalues --    2.77673   2.80115   2.81295   2.86083   2.89130
 Alpha virt. eigenvalues --    2.89231   2.99875   3.02330   3.06422   3.07817
 Alpha virt. eigenvalues --    3.11240   3.17251   3.19247   3.31263   3.51910
 Alpha virt. eigenvalues --    3.93026   4.03846   4.05794   4.14448   4.21157
 Alpha virt. eigenvalues --    4.22178   4.27318   4.32242   4.33361   4.47454
 Alpha virt. eigenvalues --    4.50084   4.51747   4.58805   4.68701   4.68987
 Alpha virt. eigenvalues --    4.89710
          Condensed to atoms (all electrons):
               1          2          3          4          5          6
     1  C    5.107478   0.355827  -0.046935  -0.005440  -0.040474  -0.001772
     2  C    0.355827   5.041207   0.348969  -0.032078   0.341852  -0.054946
     3  C   -0.046935   0.348969   5.085845   0.307884  -0.030636   0.000328
     4  C   -0.005440  -0.032078   0.307884   5.309820  -0.020323  -0.116292
     5  C   -0.040474   0.341852  -0.030636  -0.020323   4.959304   0.507180
     6  C   -0.001772  -0.054946   0.000328  -0.116292   0.507180   5.176792
     7  C   -0.000178   0.007765  -0.000771   0.010897  -0.072393   0.396942
     8  C    0.000027  -0.000558  -0.000014  -0.000047  -0.022092  -0.019256
     9  C    0.000000   0.000004   0.000000   0.000000   0.001014   0.007387
    10  O   -0.000000   0.000000   0.000000  -0.000000   0.000007  -0.000034
    11  O   -0.000000  -0.000000   0.000000  -0.000000   0.000007   0.001207
    12  C   -0.000202   0.009065  -0.000179  -0.000015  -0.073534  -0.045943
    13  C   -0.003472  -0.061835   0.005319  -0.000499   0.476585   0.000709
    14  O   -0.003167  -0.004337   0.000238  -0.000003  -0.060232   0.002457
    15  C    0.000008  -0.021322  -0.026232   0.338836  -0.020792   0.262452
    16  O   -0.000003   0.000123   0.002430  -0.082151   0.004042  -0.091660
    17  H    0.376933  -0.032451  -0.006330   0.003007  -0.005464   0.002065
    18  H    0.371949  -0.031205  -0.003732  -0.000117   0.004964   0.000010
    19  H    0.377507  -0.026824   0.004552  -0.000066  -0.007575  -0.000308
    20  H   -0.039906   0.385588  -0.041425   0.004738  -0.041009   0.003264
    21  H    0.005147  -0.036784   0.380864  -0.042081  -0.001438   0.001516
    22  H   -0.005115  -0.032404   0.371081  -0.028913   0.004200   0.000188
    23  H    0.000014   0.003641  -0.027342   0.357597   0.000068   0.005220
    24  H    0.003324  -0.004229  -0.035992   0.361003  -0.000356   0.001792
    25  H    0.000001  -0.000101  -0.000032   0.000675   0.004086  -0.039447
    26  H    0.000000   0.000000  -0.000000   0.000000   0.000000  -0.000001
    27  H    0.000002  -0.000119   0.000001  -0.000000   0.003944   0.000313
    28  H    0.000063  -0.000248  -0.000002   0.000000   0.007408  -0.000026
               7          8          9         10         11         12
     1  C   -0.000178   0.000027   0.000000  -0.000000  -0.000000  -0.000202
     2  C    0.007765  -0.000558   0.000004   0.000000  -0.000000   0.009065
     3  C   -0.000771  -0.000014   0.000000   0.000000   0.000000  -0.000179
     4  C    0.010897  -0.000047   0.000000  -0.000000  -0.000000  -0.000015
     5  C   -0.072393  -0.022092   0.001014   0.000007   0.000007  -0.073534
     6  C    0.396942  -0.019256   0.007387  -0.000034   0.001207  -0.045943
     7  C    5.250296   0.453722  -0.036542   0.004644   0.003444  -0.082662
     8  C    0.453722   5.040239   0.282042  -0.096582  -0.096405   0.440294
     9  C   -0.036542   0.282042   4.365987   0.286309   0.600327  -0.026720
    10  O    0.004644  -0.096582   0.286309   8.256149  -0.094463   0.001505
    11  O    0.003444  -0.096405   0.600327  -0.094463   8.019705   0.003950
    12  C   -0.082662   0.440294  -0.026720   0.001505   0.003950   5.268240
    13  C   -0.054454   0.003039   0.002762   0.000455  -0.000052   0.446363
    14  O    0.000515   0.003896  -0.000053  -0.000000   0.000000  -0.063515
    15  C   -0.038457   0.007303  -0.000269   0.000000  -0.000015   0.000734
    16  O    0.002954   0.001616  -0.000017  -0.000000   0.000001   0.000009
    17  H   -0.000010  -0.000013  -0.000000   0.000000  -0.000000   0.000018
    18  H    0.000003  -0.000000  -0.000000   0.000000   0.000000   0.000004
    19  H    0.000009  -0.000012   0.000000  -0.000000  -0.000000  -0.000016
    20  H   -0.000129   0.000001   0.000000   0.000000  -0.000000   0.000205
    21  H   -0.000196  -0.000004  -0.000000   0.000000   0.000000  -0.000001
    22  H    0.000022  -0.000000  -0.000000   0.000000   0.000000   0.000002
    23  H   -0.000165   0.000001  -0.000000   0.000000   0.000000  -0.000000
    24  H   -0.000328   0.000003  -0.000000   0.000000  -0.000000   0.000000
    25  H    0.356663  -0.037633  -0.006685   0.000237   0.010391   0.004774
    26  H   -0.000259   0.011355  -0.010583   0.227356   0.010179  -0.000514
    27  H    0.004925  -0.021440  -0.009832   0.009971   0.000102   0.344456
    28  H   -0.000006   0.000793  -0.000022  -0.000006  -0.000000  -0.004604
              13         14         15         16         17         18
     1  C   -0.003472  -0.003167   0.000008  -0.000003   0.376933   0.371949
     2  C   -0.061835  -0.004337  -0.021322   0.000123  -0.032451  -0.031205
     3  C    0.005319   0.000238  -0.026232   0.002430  -0.006330  -0.003732
     4  C   -0.000499  -0.000003   0.338836  -0.082151   0.003007  -0.000117
     5  C    0.476585  -0.060232  -0.020792   0.004042  -0.005464   0.004964
     6  C    0.000709   0.002457   0.262452  -0.091660   0.002065   0.000010
     7  C   -0.054454   0.000515  -0.038457   0.002954  -0.000010   0.000003
     8  C    0.003039   0.003896   0.007303   0.001616  -0.000013  -0.000000
     9  C    0.002762  -0.000053  -0.000269  -0.000017  -0.000000  -0.000000
    10  O    0.000455  -0.000000   0.000000  -0.000000   0.000000   0.000000
    11  O   -0.000052   0.000000  -0.000015   0.000001  -0.000000   0.000000
    12  C    0.446363  -0.063515   0.000734   0.000009   0.000018   0.000004
    13  C    4.678067   0.289380   0.005884  -0.000088  -0.000167   0.000037
    14  O    0.289380   8.226016  -0.000038   0.000000   0.000030   0.000012
    15  C    0.005884  -0.000038   4.555411   0.587892  -0.000439  -0.000000
    16  O   -0.000088   0.000000   0.587892   8.008592  -0.000006  -0.000000
    17  H   -0.000167   0.000030  -0.000439  -0.000006   0.566039  -0.029502
    18  H    0.000037   0.000012  -0.000000  -0.000000  -0.029502   0.564622
    19  H    0.002524   0.006391   0.000030   0.000000  -0.028656  -0.026650
    20  H   -0.009858   0.007330   0.000082   0.000002   0.005010  -0.002810
    21  H   -0.000071   0.000000  -0.002754   0.000089  -0.000033  -0.000014
    22  H   -0.000130  -0.000002   0.003037  -0.000061  -0.000135   0.003950
    23  H    0.000013   0.000000  -0.023574   0.003400  -0.000033  -0.000018
    24  H   -0.000029  -0.000000  -0.025108  -0.000180   0.002648   0.000027
    25  H    0.000272   0.000002  -0.006902   0.015563   0.000001  -0.000000
    26  H    0.000007  -0.000000  -0.000000   0.000000   0.000000  -0.000000
    27  H   -0.042258  -0.004336   0.000006   0.000000   0.000000  -0.000000
    28  H   -0.032136   0.250169   0.000002  -0.000000  -0.000002  -0.000001
              19         20         21         22         23         24
     1  C    0.377507  -0.039906   0.005147  -0.005115   0.000014   0.003324
     2  C   -0.026824   0.385588  -0.036784  -0.032404   0.003641  -0.004229
     3  C    0.004552  -0.041425   0.380864   0.371081  -0.027342  -0.035992
     4  C   -0.000066   0.004738  -0.042081  -0.028913   0.357597   0.361003
     5  C   -0.007575  -0.041009  -0.001438   0.004200   0.000068  -0.000356
     6  C   -0.000308   0.003264   0.001516   0.000188   0.005220   0.001792
     7  C    0.000009  -0.000129  -0.000196   0.000022  -0.000165  -0.000328
     8  C   -0.000012   0.000001  -0.000004  -0.000000   0.000001   0.000003
     9  C    0.000000   0.000000  -0.000000  -0.000000  -0.000000  -0.000000
    10  O   -0.000000   0.000000   0.000000   0.000000   0.000000   0.000000
    11  O   -0.000000  -0.000000   0.000000   0.000000   0.000000  -0.000000
    12  C   -0.000016   0.000205  -0.000001   0.000002  -0.000000   0.000000
    13  C    0.002524  -0.009858  -0.000071  -0.000130   0.000013  -0.000029
    14  O    0.006391   0.007330   0.000000  -0.000002   0.000000  -0.000000
    15  C    0.000030   0.000082  -0.002754   0.003037  -0.023574  -0.025108
    16  O    0.000000   0.000002   0.000089  -0.000061   0.003400  -0.000180
    17  H   -0.028656   0.005010  -0.000033  -0.000135  -0.000033   0.002648
    18  H   -0.026650  -0.002810  -0.000014   0.003950  -0.000018   0.000027
    19  H    0.534897  -0.004258  -0.000141   0.000022   0.000001  -0.000097
    20  H   -0.004258   0.577855  -0.004738  -0.001837  -0.000098  -0.000012
    21  H   -0.000141  -0.004738   0.579371  -0.032306  -0.003163   0.005016
    22  H    0.000022  -0.001837  -0.032306   0.580169  -0.002451  -0.004560
    23  H    0.000001  -0.000098  -0.003163  -0.002451   0.534619  -0.023015
    24  H   -0.000097  -0.000012   0.005016  -0.004560  -0.023015   0.546076
    25  H    0.000000   0.000002  -0.000004   0.000000  -0.000013  -0.000020
    26  H    0.000000   0.000000  -0.000000  -0.000000  -0.000000  -0.000000
    27  H    0.000004  -0.000003   0.000000  -0.000000   0.000000  -0.000000
    28  H   -0.000102  -0.000175  -0.000000  -0.000000   0.000000  -0.000000
              25         26         27         28
     1  C    0.000001   0.000000   0.000002   0.000063
     2  C   -0.000101   0.000000  -0.000119  -0.000248
     3  C   -0.000032  -0.000000   0.000001  -0.000002
     4  C    0.000675   0.000000  -0.000000   0.000000
     5  C    0.004086   0.000000   0.003944   0.007408
     6  C   -0.039447  -0.000001   0.000313  -0.000026
     7  C    0.356663  -0.000259   0.004925  -0.000006
     8  C   -0.037633   0.011355  -0.021440   0.000793
     9  C   -0.006685  -0.010583  -0.009832  -0.000022
    10  O    0.000237   0.227356   0.009971  -0.000006
    11  O    0.010391   0.010179   0.000102  -0.000000
    12  C    0.004774  -0.000514   0.344456  -0.004604
    13  C    0.000272   0.000007  -0.042258  -0.032136
    14  O    0.000002  -0.000000  -0.004336   0.250169
    15  C   -0.006902  -0.000000   0.000006   0.000002
    16  O    0.015563   0.000000   0.000000  -0.000000
    17  H    0.000001   0.000000   0.000000  -0.000002
    18  H   -0.000000  -0.000000  -0.000000  -0.000001
    19  H    0.000000   0.000000   0.000004  -0.000102
    20  H    0.000002   0.000000  -0.000003  -0.000175
    21  H   -0.000004  -0.000000   0.000000  -0.000000
    22  H    0.000000  -0.000000  -0.000000  -0.000000
    23  H   -0.000013  -0.000000   0.000000   0.000000
    24  H   -0.000020  -0.000000  -0.000000  -0.000000
    25  H    0.498841  -0.000020  -0.000133  -0.000001
    26  H   -0.000020   0.342170  -0.000265   0.000000
    27  H   -0.000133  -0.000265   0.548012   0.006338
    28  H   -0.000001   0.000000   0.006338   0.354401
 Mulliken charges:
               1
     1  C   -0.451615
     2  C   -0.154598
     3  C   -0.287890
     4  C   -0.366433
     5  C    0.081657
     6  C   -0.000138
     7  C   -0.206251
     8  C    0.049727
     9  C    0.544891
    10  O   -0.595549
    11  O   -0.458378
    12  C   -0.221714
    13  C    0.293633
    14  O   -0.650753
    15  C    0.404225
    16  O   -0.452546
    17  H    0.147489
    18  H    0.148471
    19  H    0.168767
    20  H    0.162180
    21  H    0.151724
    22  H    0.145244
    23  H    0.175298
    24  H    0.174036
    25  H    0.199482
    26  H    0.420575
    27  H    0.160311
    28  H    0.418157
 Sum of Mulliken charges =  -0.00000
 Mulliken charges with hydrogens summed into heavy atoms:
               1
     1  C    0.013112
     2  C    0.007582
     3  C    0.009078
     4  C   -0.017099
     5  C    0.081657
     6  C   -0.000138
     7  C   -0.006769
     8  C    0.049727
     9  C    0.544891
    10  O   -0.174974
    11  O   -0.458378
    12  C   -0.061403
    13  C    0.293633
    14  O   -0.232596
    15  C    0.404225
    16  O   -0.452546
 Electronic spatial extent (au):  <R**2>=           3817.1480
 Charge=             -0.0000 electrons
 Dipole moment (field-independent basis, Debye):
    X=              0.6028    Y=             -5.1900    Z=             -0.3085  Tot=              5.2340
 Quadrupole moment (field-independent basis, Debye-Ang):
   XX=            -79.3534   YY=            -99.2333   ZZ=            -91.4522
   XY=              9.2385   XZ=              0.3571   YZ=             -0.2457
 Traceless Quadrupole moment (field-independent basis, Debye-Ang):
   XX=             10.6595   YY=             -9.2203   ZZ=             -1.4392
   XY=              9.2385   XZ=              0.3571   YZ=             -0.2457
 Octapole moment (field-independent basis, Debye-Ang**2):
  XXX=            -58.0275  YYY=            -75.2968  ZZZ=              0.0130  XYY=            -15.8211
  XXY=            -24.4208  XXZ=             -1.2599  XZZ=             -6.2057  YZZ=              3.0372
  YYZ=             -4.9704  XYZ=             -0.3422
 Hexadecapole moment (field-independent basis, Debye-Ang**3):
 XXXX=          -2695.8188 YYYY=          -1394.2356 ZZZZ=           -211.3672 XXXY=            124.7332
 XXXZ=             -8.1181 YYYX=             49.5463 YYYZ=              8.3453 ZZZX=             -4.6082
 ZZZY=              6.8323 XXYY=           -824.9503 XXZZ=           -565.7292 YYZZ=           -263.7285
 XXYZ=             -4.9836 YYXZ=              3.5950 ZZXY=              2.7850
 N-N= 1.084234151735D+03 E-N=-3.953042991231D+03  KE= 7.581697176846D+02
 1\1\GINC-C087\SP\RCAM-B3LYP TD-FC\6-31G(d)\C12H12O4\XYCAO\28-Dec-2023\
 0\\# td=(nstates=20,root=20) cam-b3lyp/6-31g(d)\\Title\\0,1\C,0,-2.845
 949,1.46292,1.155591\C,0,-2.329428,0.966092,-0.213447\C,0,-3.152012,-0
 .212885,-0.765478\C,0,-2.872185,-1.516998,-0.010354\C,0,-0.857088,0.60
 1836,-0.141346\C,0,-0.416277,-0.731811,-0.035534\C,0,0.949082,-1.03919
 5,0.028997\C,0,1.896285,-0.020167,-0.008138\C,0,3.335965,-0.384276,0.0
 63992\O,0,4.158212,0.699298,0.016853\O,0,3.767461,-1.51455,0.15522\C,0
 ,1.477282,1.315266,-0.111289\C,0,0.120326,1.617087,-0.17428\O,0,-0.329
 348,2.908192,-0.275743\C,0,-1.393126,-1.869496,0.011301\O,0,-1.014696,
 -3.02758,0.083465\H,0,-2.760876,0.691476,1.928842\H,0,-3.900263,1.7538
 31,1.079209\H,0,-2.276054,2.335475,1.487308\H,0,-2.425518,1.806525,-0.
 910978\H,0,-2.905847,-0.354041,-1.826296\H,0,-4.22059,0.029147,-0.7199
 92\H,0,-3.413637,-2.368038,-0.434775\H,0,-3.200163,-1.43123,1.036101\H
 ,0,1.258811,-2.074622,0.108691\H,0,5.063696,0.341689,0.070591\H,0,2.21
 6806,2.110493,-0.143784\H,0,0.433356,3.506171,-0.313379\\Version=ES64L
 -G16RevA.03\State=1-A\HF=-765.0667614\RMSD=5.883e-09\PG=C01 [X(C12H12O
 4)]\\@


 SI MONUMENTUM REQUIRIS, CIRCUMSPICE
     -- FROM SIR CHRISTOPHER WREN'S TOMBSTONE
 Job cpu time:       0 days  0 hours 31 minutes 55.9 seconds.
 Elapsed time:       0 days  0 hours  1 minutes  0.3 seconds.
 File lengths (MBytes):  RWF=    881 Int=      0 D2E=      0 Chk=     54 Scr=      1
 Normal termination of Gaussian 16 at Thu Dec 28 13:13:51 2023.
