 Entering Gaussian System, Link 0=g16
 Input=molecule_17_1_ECD.com
 Output=molecule_17_1_ECD.log
 Initial command:
 /share/apps/g16/A03/l1.exe "/tmp/954295.tmpdir/scr/Gau-43565.inp" -scrdir="/tmp/954295.tmpdir/scr/"
 Entering Link 1 = /share/apps/g16/A03/l1.exe PID=     43566.
  
 Copyright (c) 1988,1990,1992,1993,1995,1998,2003,2009,2016,
            Gaussian, Inc.  All Rights Reserved.
  
 This is part of the Gaussian(R) 16 program.  It is based on
 the Gaussian(R) 09 system (copyright 2009, Gaussian, Inc.),
 the Gaussian(R) 03 system (copyright 2003, Gaussian, Inc.),
 the Gaussian(R) 98 system (copyright 1998, Gaussian, Inc.),
 the Gaussian(R) 94 system (copyright 1995, Gaussian, Inc.),
 the Gaussian 92(TM) system (copyright 1992, Gaussian, Inc.),
 the Gaussian 90(TM) system (copyright 1990, Gaussian, Inc.),
 the Gaussian 88(TM) system (copyright 1988, Gaussian, Inc.),
 the Gaussian 86(TM) system (copyright 1986, Carnegie Mellon
 University), and the Gaussian 82(TM) system (copyright 1983,
 Carnegie Mellon University). Gaussian is a federally registered
 trademark of Gaussian, Inc.
  
 This software contains proprietary and confidential information,
 including trade secrets, belonging to Gaussian, Inc.
  
 This software is provided under written license and may be
 used, copied, transmitted, or stored only in accord with that
 written license.
  
 The following legend is applicable only to US Government
 contracts under FAR:
  
                    RESTRICTED RIGHTS LEGEND
  
 Use, reproduction and disclosure by the US Government is
 subject to restrictions as set forth in subparagraphs (a)
 and (c) of the Commercial Computer Software - Restricted
 Rights clause in FAR 52.227-19.
  
 Gaussian, Inc.
 340 Quinnipiac St., Bldg. 40, Wallingford CT 06492
  
  
 ---------------------------------------------------------------
 Warning -- This program may not be used in any manner that
 competes with the business of Gaussian, Inc. or will provide
 assistance to any competitor of Gaussian, Inc.  The licensee
 of this program is prohibited from giving any competitor of
 Gaussian, Inc. access to this program.  By using this program,
 the user acknowledges that Gaussian, Inc. is engaged in the
 business of creating and licensing software in the field of
 computational chemistry and represents and warrants to the
 licensee that it is not a competitor of Gaussian, Inc. and that
 it will not use this program in any manner prohibited above.
 ---------------------------------------------------------------
  

 Cite this work as:
 Gaussian 16, Revision A.03,
 M. J. Frisch, G. W. Trucks, H. B. Schlegel, G. E. Scuseria, 
 M. A. Robb, J. R. Cheeseman, G. Scalmani, V. Barone, 
 G. A. Petersson, H. Nakatsuji, X. Li, M. Caricato, A. V. Marenich, 
 J. Bloino, B. G. Janesko, R. Gomperts, B. Mennucci, H. P. Hratchian, 
 J. V. Ortiz, A. F. Izmaylov, J. L. Sonnenberg, D. Williams-Young, 
 F. Ding, F. Lipparini, F. Egidi, J. Goings, B. Peng, A. Petrone, 
 T. Henderson, D. Ranasinghe, V. G. Zakrzewski, J. Gao, N. Rega, 
 G. Zheng, W. Liang, M. Hada, M. Ehara, K. Toyota, R. Fukuda, 
 J. Hasegawa, M. Ishida, T. Nakajima, Y. Honda, O. Kitao, H. Nakai, 
 T. Vreven, K. Throssell, J. A. Montgomery, Jr., J. E. Peralta, 
 F. Ogliaro, M. J. Bearpark, J. J. Heyd, E. N. Brothers, K. N. Kudin, 
 V. N. Staroverov, T. A. Keith, R. Kobayashi, J. Normand, 
 K. Raghavachari, A. P. Rendell, J. C. Burant, S. S. Iyengar, 
 J. Tomasi, M. Cossi, J. M. Millam, M. Klene, C. Adamo, R. Cammi, 
 J. W. Ochterski, R. L. Martin, K. Morokuma, O. Farkas, 
 J. B. Foresman, and D. J. Fox, Gaussian, Inc., Wallingford CT, 2016.
 
 ******************************************
 Gaussian 16:  ES64L-G16RevA.03 25-Dec-2016
                28-Dec-2023 
 ******************************************
 %nprocs=32
 Will use up to   32 processors via shared memory.
 %chk=molecule_17_1_ECD.chk
 %mem=10GB
 --------------------------------------------
 # td=(nstates=20,root=20) cam-b3lyp/6-31g(d)
 --------------------------------------------
 1/38=1,172=1/1;
 2/12=2,17=6,18=5,40=1/2;
 3/5=1,6=6,7=1,11=9,25=1,30=1,74=-40/1,2,3,8;
 4//1;
 5/5=2,38=5/2;
 8/6=1,10=2,107=20,108=20/1;
 9/8=20,41=20,42=1,70=2/14;
 6/7=2,8=2,9=2,10=2/1;
 99/5=1,9=1/99;
 -----
 Title
 -----
 Symbolic Z-matrix:
 Charge =  0 Multiplicity = 1
 O                     4.39657   2.85025  -0.00824 
 C                     3.39111   1.94236  -0.06987 
 C                     2.04671   2.29806  -0.24003 
 C                     1.0723    1.31432  -0.29196 
 C                     1.37832  -0.0515   -0.17265 
 C                     0.27003  -1.02787  -0.22822 
 N                    -0.89981  -0.67718  -0.61822 
 C                    -1.86251  -1.77276  -0.62426 
 C                    -3.26968  -1.31567  -0.21058 
 N                    -3.48904   0.01569  -0.34166 
 C                    -4.73727   0.61788   0.05182 
 C                    -4.55414   2.11349   0.19417 
 O                    -5.70408   2.71471   0.56301 
 O                    -3.51933   2.71341  -0.00124 
 O                    -4.1196   -2.11338   0.17187 
 C                    -1.36215  -2.93119   0.26638 
 S                     0.46622  -2.74544   0.28606 
 C                     2.73348  -0.40956  -0.00904 
 O                     3.05717  -1.71806   0.08102 
 C                     3.71997   0.58869   0.04242 
 Cl                    5.39724   0.11067   0.24629 
 H                     4.02201   3.74001  -0.10483 
 H                     1.77446   3.34733  -0.32575 
 H                     0.03233   1.59014  -0.42052 
 H                    -1.95134  -2.12526  -1.66494 
 H                    -2.70031   0.61979  -0.54611 
 H                    -5.53679   0.43096  -0.67886 
 H                    -5.09338   0.19729   1.00074 
 H                    -5.51007   3.66872   0.62926 
 H                    -1.63265  -3.90763  -0.13641 
 H                    -1.75562  -2.85413   1.28333 
 H                     4.01778  -1.80406   0.21892 
 
                          Input orientation:                          
 ---------------------------------------------------------------------
 Center     Atomic      Atomic             Coordinates (Angstroms)
 Number     Number       Type             X           Y           Z
 ---------------------------------------------------------------------
      1          8           0        4.396573    2.850248   -0.008240
      2          6           0        3.391107    1.942356   -0.069870
      3          6           0        2.046710    2.298056   -0.240030
      4          6           0        1.072301    1.314320   -0.291955
      5          6           0        1.378319   -0.051498   -0.172647
      6          6           0        0.270027   -1.027871   -0.228224
      7          7           0       -0.899810   -0.677178   -0.618224
      8          6           0       -1.862509   -1.772756   -0.624256
      9          6           0       -3.269684   -1.315665   -0.210583
     10          7           0       -3.489045    0.015689   -0.341658
     11          6           0       -4.737268    0.617880    0.051818
     12          6           0       -4.554137    2.113493    0.194169
     13          8           0       -5.704080    2.714712    0.563013
     14          8           0       -3.519328    2.713406   -0.001240
     15          8           0       -4.119598   -2.113383    0.171865
     16          6           0       -1.362154   -2.931185    0.266381
     17         16           0        0.466224   -2.745444    0.286056
     18          6           0        2.733477   -0.409559   -0.009041
     19          8           0        3.057174   -1.718055    0.081024
     20          6           0        3.719966    0.588694    0.042417
     21         17           0        5.397243    0.110667    0.246293
     22          1           0        4.022006    3.740010   -0.104827
     23          1           0        1.774459    3.347327   -0.325751
     24          1           0        0.032334    1.590138   -0.420516
     25          1           0       -1.951343   -2.125261   -1.664939
     26          1           0       -2.700305    0.619794   -0.546107
     27          1           0       -5.536794    0.430960   -0.678856
     28          1           0       -5.093384    0.197294    1.000742
     29          1           0       -5.510068    3.668718    0.629260
     30          1           0       -1.632650   -3.907631   -0.136414
     31          1           0       -1.755624   -2.854131    1.283330
     32          1           0        4.017782   -1.804061    0.218919
 ---------------------------------------------------------------------
                    Distance matrix (angstroms):
                    1          2          3          4          5
     1  O    0.000000
     2  C    1.356108   0.000000
     3  C    2.424974   1.401028   0.000000
     4  C    3.672922   2.412595   1.385607   0.000000
     5  C    4.190109   2.835019   2.443704   1.404756   0.000000
     6  C    5.667149   4.311434   3.770747   2.476603   1.478074
     7  N    6.392690   5.057135   4.204406   2.821655   2.404139
     8  C    7.805623   6.458319   5.656954   4.272420   3.697248
     9  C    8.727386   7.416241   6.428366   5.077034   4.817000
    10  N    8.386231   7.149993   5.988665   4.742867   4.870761
    11  C    9.402879   8.236475   6.995036   5.861254   6.156205
    12  C    8.983261   7.951472   6.617686   5.703665   6.325802
    13  O   10.117702   9.149836   7.803411   6.972188   7.638946
    14  O    7.917087   6.953657   5.586619   4.808847   5.626813
    15  O    9.858765   8.539212   7.593010   6.238597   5.881934
    16  C    8.164761   6.816007   6.262728   4.925710   3.999442
    17  S    6.844415   5.536885   5.311459   4.145251   2.880915
    18  C    3.659540   2.442884   2.802888   2.410665   1.411180
    19  O    4.761444   3.678708   4.153704   3.643368   2.379142
    20  C    2.361142   1.397554   2.408626   2.765586   2.437090
    21  Cl   2.927701   2.734890   4.030788   4.521462   4.043953
    22  H    0.970209   1.905470   2.449348   3.823578   4.622685
    23  H    2.687635   2.157074   1.087400   2.151113   3.425256
    24  H    4.561187   3.395345   2.142763   1.083575   2.137308
    25  H    8.233856   6.901560   6.130296   4.781028   4.196913
    26  H    7.458546   6.251502   5.044244   3.844414   4.150335
    27  H   10.245704   9.075384   7.822285   6.679083   6.950381
    28  H    9.905327   8.728003   7.545440   6.398006   6.581921
    29  H    9.960815   9.093955   7.729119   7.051199   7.869748
    30  H    9.057422   7.711349   7.215191   5.883003   4.892546
    31  H    8.488676   7.164236   6.582051   5.277752   4.449294
    32  H    4.675219   3.809431   4.574180   4.319855   3.192423
                    6          7          8          9         10
     6  C    0.000000
     7  N    1.282031   0.000000
     8  C    2.293339   1.458464   0.000000
     9  C    3.551435   2.487999   1.536294   0.000000
    10  N    3.902884   2.694567   2.433930   1.355656   0.000000
    11  C    5.278250   4.105145   3.799534   2.441568   1.440666
    12  C    5.772274   4.669254   4.797667   3.684124   2.412947
    13  O    7.093866   5.998437   6.025334   4.771653   3.606873
    14  O    5.329905   4.328811   4.822743   4.042222   2.719279
    15  O    4.539517   3.613026   2.417496   1.226774   2.279090
    16  C    2.555632   2.465124   1.544522   2.544812   3.684758
    17  S    1.803617   2.638465   2.682869   4.030872   4.864364
    18  C    2.549301   3.693711   4.833206   6.074503   6.245899
    19  O    2.887936   4.150915   4.970281   6.346344   6.785095
    20  C    3.819504   4.835412   6.097944   7.248848   7.241940
    21  Cl   5.273498   6.404761   7.550440   8.795384   8.906224
    22  H    6.068382   6.633204   8.080094   8.873544   8.387046
    23  H    4.627654   4.840857   6.287439   6.870236   6.229329
    24  H    2.635801   2.459411   3.865358   4.403531   3.858137
    25  H    2.864070   2.073229   1.102349   2.123351   2.949452
    26  H    3.411557   2.220162   2.536199   2.045182   1.014324
    27  H    6.004201   4.767942   4.284824   2.899960   2.116466
    28  H    5.637159   4.579499   4.118285   2.661247   2.099743
    29  H    7.496848   6.457361   6.669755   5.528900   4.286238
    30  H    3.452771   3.347390   2.201935   3.066540   4.345200
    31  H    3.118218   3.014540   2.195377   2.625077   3.725748
    32  H    3.853320   5.114038   5.940517   7.316431   7.744559
                   11         12         13         14         15
    11  C    0.000000
    12  C    1.513492   0.000000
    13  O    2.364900   1.349029   0.000000
    14  O    2.424340   1.211986   2.256441   0.000000
    15  O    2.802807   4.249212   5.096477   4.867051   0.000000
    16  C    4.902376   5.970155   7.128567   6.048672   2.877713
    17  S    6.200254   6.987255   8.243947   6.765073   4.630584
    18  C    7.541311   7.714688   9.015580   6.989316   7.064020
    19  O    8.137000   8.522066   9.830631   7.930636   7.188226
    20  C    8.457290   8.414798   9.674896   7.544779   8.293174
    21  Cl  10.149059  10.151059  11.407048   9.291973   9.773546
    22  H    9.300382   8.734139   9.802754   7.611594  10.031176
    23  H    7.070716   6.468678   7.557688   5.341474   8.050272
    24  H    4.890551   4.656979   5.927769   3.748577   5.595134
    25  H    4.270065   5.310165   6.517066   5.351558   2.841711
    26  H    2.122907   2.493158   3.826420   2.313199   3.162299
    27  H    1.099120   2.135112   2.604947   3.120720   3.034115
    28  H    1.097346   2.147828   2.627156   3.132481   2.640932
    29  H    3.199730   1.876655   0.975785   2.296344   5.964504
    30  H    5.491296   6.700620   7.805201   6.885925   3.082089
    31  H    4.739376   5.804760   6.864486   5.979819   2.715223
    32  H    9.085407   9.424735  10.726244   8.789995   8.143393
                   16         17         18         19         20
    16  C    0.000000
    17  S    1.837894   0.000000
    18  C    4.817535   3.268620   0.000000
    19  O    4.586557   2.794743   1.350945   0.000000
    20  C    6.186085   4.665048   1.404392   2.400391   0.000000
    21  Cl   7.412335   5.698588   2.726074   2.974468   1.755942
    22  H    8.580898   7.406584   4.346079   5.545802   3.169180
    23  H    7.043343   6.261601   3.890272   5.241080   3.395674
    24  H    4.781086   4.414156   3.385893   4.510581   3.849133
    25  H    2.174087   3.167908   5.256726   5.319722   6.514934
    26  H    3.880752   4.695128   5.556437   6.245590   6.447264
    27  H    5.442895   6.859798   8.339815   8.891117   9.286157
    28  H    4.924301   6.330855   7.915029   8.422947   8.873935
    29  H    7.803563   8.773559   9.219317  10.134867   9.748049
    30  H    1.090348   2.436069   5.596052   5.180345   6.992812
    31  H    1.093134   2.437822   5.272398   5.089129   6.585970
    32  H    5.496942   3.674816   1.909461   0.974259   2.417669
                   21         22         23         24         25
    21  Cl   0.000000
    22  H    3.897011   0.000000
    23  H    4.891602   2.292264   0.000000
    24  H    5.604973   4.543027   2.476226   0.000000
    25  H    7.915422   8.515647   6.754572   4.391782   0.000000
    26  H    8.152140   7.424281   5.245141   2.902526   3.057459
    27  H   10.977780  10.131633   7.879359   5.694350   4.512437
    28  H   10.518077   9.841923   7.671347   5.498452   4.729962
    29  H   11.479365   9.560565   7.353888   6.011717   7.176215
    30  H    8.106330   9.511180   8.017397   5.751378   2.369556
    31  H    7.812105   8.876412   7.314965   5.084428   3.043328
    32  H    2.360052   5.553517   5.644994   5.273828   6.267579
                   26         27         28         29         30
    26  H    0.000000
    27  H    2.845865   0.000000
    28  H    2.880638   1.752787   0.000000
    29  H    4.309547   3.492128   3.516022   0.000000
    30  H    4.669616   5.861737   5.488188   8.545273   0.000000
    31  H    4.038244   5.379521   4.531191   7.554549   1.772190
    32  H    7.182829   9.853489   9.361090  10.995436   6.039756
                   31         32
    31  H    0.000000
    32  H    5.963877   0.000000
 Stoichiometry    C12H11ClN2O5S
 Framework group  C1[X(C12H11ClN2O5S)]
 Deg. of freedom    90
 Full point group                 C1      NOp   1
 Largest Abelian subgroup         C1      NOp   1
 Largest concise Abelian subgroup C1      NOp   1
                         Standard orientation:                         
 ---------------------------------------------------------------------
 Center     Atomic      Atomic             Coordinates (Angstroms)
 Number     Number       Type             X           Y           Z
 ---------------------------------------------------------------------
      1          8           0       -4.396573    2.850248    0.008240
      2          6           0       -3.391107    1.942356    0.069870
      3          6           0       -2.046710    2.298056    0.240030
      4          6           0       -1.072301    1.314320    0.291955
      5          6           0       -1.378319   -0.051498    0.172647
      6          6           0       -0.270027   -1.027871    0.228224
      7          7           0        0.899810   -0.677178    0.618224
      8          6           0        1.862509   -1.772756    0.624256
      9          6           0        3.269684   -1.315665    0.210583
     10          7           0        3.489045    0.015689    0.341658
     11          6           0        4.737268    0.617880   -0.051818
     12          6           0        4.554137    2.113493   -0.194169
     13          8           0        5.704080    2.714712   -0.563013
     14          8           0        3.519328    2.713406    0.001240
     15          8           0        4.119598   -2.113383   -0.171865
     16          6           0        1.362154   -2.931185   -0.266381
     17         16           0       -0.466224   -2.745444   -0.286056
     18          6           0       -2.733477   -0.409559    0.009041
     19          8           0       -3.057174   -1.718055   -0.081024
     20          6           0       -3.719966    0.588694   -0.042417
     21         17           0       -5.397243    0.110667   -0.246293
     22          1           0       -4.022006    3.740010    0.104827
     23          1           0       -1.774459    3.347327    0.325751
     24          1           0       -0.032334    1.590138    0.420516
     25          1           0        1.951343   -2.125261    1.664939
     26          1           0        2.700305    0.619794    0.546107
     27          1           0        5.536794    0.430960    0.678856
     28          1           0        5.093384    0.197294   -1.000742
     29          1           0        5.510068    3.668718   -0.629260
     30          1           0        1.632650   -3.907631    0.136414
     31          1           0        1.755624   -2.854131   -1.283330
     32          1           0       -4.017782   -1.804061   -0.218919
 ---------------------------------------------------------------------
 Rotational constants (GHZ):           0.4186019           0.1256918           0.0979280
 Standard basis: 6-31G(d) (6D, 7F)
 There are   345 symmetry adapted cartesian basis functions of A   symmetry.
 There are   345 symmetry adapted basis functions of A   symmetry.
   345 basis functions,   680 primitive gaussians,   345 cartesian basis functions
    85 alpha electrons       85 beta electrons
       nuclear repulsion energy      1889.0308655141 Hartrees.
 NAtoms=   32 NActive=   32 NUniq=   32 SFac= 1.00D+00 NAtFMM=   60 NAOKFM=F Big=F
 Integral buffers will be    131072 words long.
 Raffenetti 1 integral format.
 Two-electron integral symmetry is turned on.
 One-electron integrals computed using PRISM.
 NBasis=   345 RedAO= T EigKep=  3.56D-04  NBF=   345
 NBsUse=   345 1.00D-06 EigRej= -1.00D+00 NBFU=   345
 ExpMin= 1.17D-01 ExpMax= 2.52D+04 ExpMxC= 3.78D+03 IAcc=3 IRadAn=         5 AccDes= 0.00D+00
 Harris functional with IExCor=20419 and IRadAn=       5 diagonalized for initial guess.
 HarFok:  IExCor=20419 AccDes= 0.00D+00 IRadAn=         5 IDoV= 1 UseB2=F ITyADJ=14
 ICtDFT=  3500011 ScaDFX=  1.000000  1.000000  1.000000  1.000000
 FoFCou: FMM=F IPFlag=           0 FMFlag=      100000 FMFlg1=           0
         NFxFlg=           0 DoJE=T BraDBF=F KetDBF=T FulRan=T
         wScrn=  0.000000 ICntrl=       500 IOpCl=  0 I1Cent=   200000004 NGrid=           0
         NMat0=    1 NMatS0=      1 NMatT0=    0 NMatD0=    1 NMtDS0=    0 NMtDT0=    0
 Petite list used in FoFCou.
 Requested convergence on RMS density matrix=1.00D-08 within 128 cycles.
 Requested convergence on MAX density matrix=1.00D-06.
 Requested convergence on             energy=1.00D-06.
 No special actions if energy rises.
 Integral accuracy reduced to 1.0D-05 until final iterations.
 Initial convergence to 1.0D-05 achieved.  Increase integral accuracy.
 SCF Done:  E(RCAM-B3LYP) =  -1807.49743221     A.U. after   15 cycles
            NFock= 15  Conv=0.88D-08     -V/T= 2.0062
 DoSCS=F DFT=T ScalE2(SS,OS)=  1.000000  1.000000
 ExpMin= 1.17D-01 ExpMax= 2.52D+04 ExpMxC= 3.78D+03 IAcc=3 IRadAn=         5 AccDes= 0.00D+00
 HarFok:  IExCor=  205 AccDes= 0.00D+00 IRadAn=         5 IDoV=-2 UseB2=F ITyADJ=14
 ICtDFT= 12500011 ScaDFX=  1.000000  1.000000  1.000000  1.000000
 GSVD:  LWork=       -1073 too small for GESVD, short by        4640 words or        4640 for optimal perf.
 Range of M.O.s used for correlation:    30   345
 NBasis=   345 NAE=    85 NBE=    85 NFC=    29 NFV=     0
 NROrb=    316 NOA=    56 NOB=    56 NVA=   260 NVB=   260
 Orbital symmetries:
       Occupied  (A) (A) (A) (A) (A) (A) (A) (A) (A) (A) (A) (A)
                 (A) (A) (A) (A) (A) (A) (A) (A) (A) (A) (A) (A)
                 (A) (A) (A) (A) (A) (A) (A) (A) (A) (A) (A) (A)
                 (A) (A) (A) (A) (A) (A) (A) (A) (A) (A) (A) (A)
                 (A) (A) (A) (A) (A) (A) (A) (A) (A) (A) (A) (A)
                 (A) (A) (A) (A) (A) (A) (A) (A) (A) (A) (A) (A)
                 (A) (A) (A) (A) (A) (A) (A) (A) (A) (A) (A) (A)
                 (A)
       Virtual   (A) (A) (A) (A) (A) (A) (A) (A) (A) (A) (A) (A)
                 (A) (A) (A) (A) (A) (A) (A) (A) (A) (A) (A) (A)
                 (A) (A) (A) (A) (A) (A) (A) (A) (A) (A) (A) (A)
                 (A) (A) (A) (A) (A) (A) (A) (A) (A) (A) (A) (A)
                 (A) (A) (A) (A) (A) (A) (A) (A) (A) (A) (A) (A)
                 (A) (A) (A) (A) (A) (A) (A) (A) (A) (A) (A) (A)
                 (A) (A) (A) (A) (A) (A) (A) (A) (A) (A) (A) (A)
                 (A) (A) (A) (A) (A) (A) (A) (A) (A) (A) (A) (A)
                 (A) (A) (A) (A) (A) (A) (A) (A) (A) (A) (A) (A)
                 (A) (A) (A) (A) (A) (A) (A) (A) (A) (A) (A) (A)
                 (A) (A) (A) (A) (A) (A) (A) (A) (A) (A) (A) (A)
                 (A) (A) (A) (A) (A) (A) (A) (A) (A) (A) (A) (A)
                 (A) (A) (A) (A) (A) (A) (A) (A) (A) (A) (A) (A)
                 (A) (A) (A) (A) (A) (A) (A) (A) (A) (A) (A) (A)
                 (A) (A) (A) (A) (A) (A) (A) (A) (A) (A) (A) (A)
                 (A) (A) (A) (A) (A) (A) (A) (A) (A) (A) (A) (A)
                 (A) (A) (A) (A) (A) (A) (A) (A) (A) (A) (A) (A)
                 (A) (A) (A) (A) (A) (A) (A) (A) (A) (A) (A) (A)
                 (A) (A) (A) (A) (A) (A) (A) (A) (A) (A) (A) (A)
                 (A) (A) (A) (A) (A) (A) (A) (A) (A) (A) (A) (A)
                 (A) (A) (A) (A) (A) (A) (A) (A) (A) (A) (A) (A)
                 (A) (A) (A) (A) (A) (A) (A) (A)
    80 initial guesses have been made.
 Convergence on wavefunction:    0.001000000000000
 Iteration     1 Dimension    80 NMult     0 NNew     80
 CISAX will form    80 AO SS matrices at one time.
 New state      1 was old state      3
 New state      3 was old state      9
 New state      4 was old state      1
 New state      5 was old state     14
 New state      6 was old state     45
 New state      7 was old state     54
 New state      8 was old state     22
 New state      9 was old state      4
 New state     10 was old state      5
 New state     11 was old state     12
 New state     12 was old state      6
 New state     13 was old state      8
 New state     14 was old state     20
 New state     15 was old state      7
 New state     16 was old state     10
 New state     17 was old state     18
 New state     18 was old state     27
 New state     19 was old state     23
 New state     20 was old state     25
 Iteration     2 Dimension   120 NMult    80 NNew     40
 New state     10 was old state     12
 New state     12 was old state     10
 New state     14 was old state     16
 New state     15 was old state     14
 New state     16 was old state     18
 New state     17 was old state     15
 New state     18 was old state     17
 Iteration     3 Dimension   160 NMult   120 NNew     40
 Iteration     4 Dimension   200 NMult   160 NNew     40
 Iteration     5 Dimension   234 NMult   200 NNew     34
 Iteration     6 Dimension   244 NMult   234 NNew     10
 Iteration     7 Dimension   246 NMult   244 NNew      2
 Iteration     8 Dimension   248 NMult   246 NNew      2
 Iteration     9 Dimension   250 NMult   248 NNew      2
 Iteration    10 Dimension   252 NMult   250 NNew      2
 ***********************************************************************
 Excited states from <AA,BB:AA,BB> singles matrix:
 ***********************************************************************
 
 Ground to excited state transition densities written to RWF  633
 Ground to excited state transition electric dipole moments (Au):
       state          X           Y           Z        Dip. S.      Osc.
         1         1.2635     -0.4656      0.1636      1.8399      0.2150
         2         0.2055      0.2617      0.1655      0.1381      0.0169
         3        -0.6342      0.7733     -0.0106      1.0003      0.1282
         4         0.7566     -0.6525     -0.0530      1.0010      0.1299
         5         0.0013      0.0263     -0.0086      0.0008      0.0001
         6         0.0057     -0.0281      0.0851      0.0081      0.0011
         7        -0.0659     -0.0165     -0.0628      0.0086      0.0013
         8         0.4972      0.3369      0.1379      0.3798      0.0566
         9         1.0573      0.5686      0.1002      1.4512      0.2172
        10        -1.0907      0.6095     -0.0278      1.5619      0.2428
        11         0.0146     -0.1266      0.0173      0.0165      0.0026
        12         0.5223     -0.3631      0.0430      0.4065      0.0645
        13         0.2036     -0.3710     -0.0088      0.1792      0.0287
        14         0.4179     -0.9323      0.0237      1.0444      0.1679
        15        -0.1443      0.0547     -0.0273      0.0246      0.0041
        16        -0.2539      0.2364      0.0098      0.1204      0.0209
        17         0.0581      0.0369     -0.0904      0.0129      0.0023
        18        -0.1512      0.1946      0.0709      0.0657      0.0116
        19        -0.0470      0.1234     -0.0795      0.0237      0.0042
        20         0.0439      0.0164     -0.0305      0.0031      0.0006
 Ground to excited state transition velocity dipole moments (Au):
       state          X           Y           Z        Dip. S.      Osc.
         1        -0.2223      0.0939     -0.0283      0.0590      0.2246
         2        -0.0383     -0.0302     -0.0303      0.0033      0.0120
         3         0.1122     -0.1403      0.0151      0.0325      0.1127
         4        -0.1443      0.1131      0.0198      0.0340      0.1164
         5        -0.0003     -0.0046     -0.0021      0.0000      0.0001
         6        -0.0052      0.0032     -0.0250      0.0007      0.0021
         7         0.0165      0.0044      0.0193      0.0007      0.0020
         8        -0.1091     -0.0787     -0.0136      0.0183      0.0545
         9        -0.2273     -0.1313     -0.0297      0.0698      0.2071
        10         0.2450     -0.1427      0.0034      0.0804      0.2299
        11        -0.0026      0.0332     -0.0090      0.0012      0.0033
        12        -0.1167      0.0936     -0.0152      0.0226      0.0633
        13        -0.0359      0.0856     -0.0013      0.0086      0.0239
        14        -0.0973      0.2196     -0.0029      0.0577      0.1594
        15         0.0424     -0.0085      0.0037      0.0019      0.0050
        16         0.0670     -0.0548     -0.0245      0.0081      0.0207
        17        -0.0142     -0.0115      0.0157      0.0006      0.0015
        18         0.0378     -0.0389     -0.0149      0.0032      0.0079
        19         0.0162     -0.0311      0.0198      0.0016      0.0041
        20        -0.0147     -0.0011      0.0434      0.0021      0.0052
 Ground to excited state transition magnetic dipole moments (Au):
       state          X           Y           Z
         1        -0.0735     -0.2658      0.0308
         2         0.0016     -0.1577     -0.2367
         3         0.6963     -0.1357      0.7443
         4         0.6590     -0.2216     -0.5523
         5        -0.2894     -0.4369     -0.0792
         6         0.7740     -0.4075     -0.2357
         7        -0.7772      0.2823      0.1244
         8        -0.0418     -0.1187      0.6822
         9        -0.1521     -0.2542      1.2895
        10         0.0902      0.1744      0.6700
        11        -0.2681     -0.0674     -0.1182
        12         0.1037      0.0695     -0.0322
        13        -0.0792     -0.0083     -0.6359
        14        -0.0186     -0.0321     -0.5436
        15        -0.0555     -0.1066     -0.3364
        16         0.1524     -0.0221      0.1237
        17        -0.0210     -0.0973     -0.0577
        18        -0.2225      0.0343     -0.0523
        19        -0.1270     -0.0411     -0.1086
        20         0.3901      0.5426      0.0625
 Ground to excited state transition velocity quadrupole moments (Au):
       state          XX          YY          ZZ          XY          XZ          YZ
         1         0.5259      0.3339     -0.0659     -0.3264     -0.0803      0.0925
         2        -0.5265      0.2814     -0.0259      0.1080     -0.0814      0.0905
         3        -0.5799     -0.0526      0.1342      0.4662      0.0586      0.0077
         4         0.3466      0.0961      0.0209     -0.4761     -0.0011      0.0362
         5        -0.0281     -0.0848      0.0490      0.0453     -0.0827      0.1287
         6         0.0770     -0.0162     -0.0939      0.0422     -0.0861      0.0781
         7         0.0634      0.0046      0.0090     -0.0144      0.1608      0.0142
         8         0.9208     -0.3157     -0.0301      0.3572      0.0395     -0.0274
         9         1.9059     -0.5916     -0.0429      0.5898      0.1182     -0.0513
        10        -0.9909     -0.0430     -0.0107      0.6368     -0.0088     -0.0209
        11         0.2070      0.0109     -0.0097     -0.1294      0.0186     -0.0660
        12         1.2155     -0.0341     -0.0182     -0.4716     -0.0058      0.0207
        13        -0.6865      0.3595      0.0165     -0.4555     -0.0974      0.0600
        14         1.0165      0.3241     -0.0112     -0.8869      0.0017      0.0623
        15         0.7313     -0.4031      0.0647     -0.1630      0.0726      0.0678
        16        -0.7884     -0.1955     -0.0089      0.4734      0.1079      0.0306
        17        -0.3777      0.0582      0.0938      0.1463      0.0943     -0.1117
        18        -0.7536     -0.1652     -0.0602      0.4099     -0.1136      0.0441
        19        -0.4459     -0.0937      0.1559      0.2101      0.0033     -0.1588
        20         0.0406     -0.1101      0.0144      0.0323     -0.3897      0.3027
 <0|del|b> * <b|rxdel|0> + <0|del|b> * <b|delr+rdel|0>
 Rotatory Strengths (R) in cgs (10**-40 erg-esu-cm/Gauss)
       state          XX          YY          ZZ    R(velocity)    E-M Angle
         1       -18.2539    -28.9088      8.9107    -12.7507       98.08
         2        11.9382     13.3259     20.4635     15.2425       43.37
         3        83.6533    152.9639    162.0076    132.8749       54.22
         4       -82.1874   -184.9054   -208.9157   -158.6695      143.18
         5         2.9135      0.5185      4.3020      2.5780       32.58
         6         6.3491      4.1693     -8.7565      0.5873       88.71
         7         4.2219    -15.7073    -17.5694     -9.6849      115.17
         8        -2.7304      4.9245     12.3452      4.8464       87.19
         9       -10.7546     40.1059     64.2143     31.1885       85.12
        10       -32.9503     25.9154      5.4156     -0.5398       90.15
        11        -0.9154      1.1603     -1.6239     -0.4597       92.56
        12        21.8164    -31.4600     -5.5251     -5.0562      105.27
        13        13.2515      1.3492     -5.9574      2.8811       87.17
        14        -4.7735     -7.6967      1.7334     -3.5789       91.60
        15        -0.4543     -0.1653     -6.9490     -2.5229       99.99
        16       -10.2089     28.2522      4.6895      7.5776       61.85
        17         4.8438     -1.7829     -1.6898      0.4570       79.43
        18       -14.7671      0.2009     -9.3253     -7.9639      133.63
        19         4.5064    -14.5560      2.2457     -2.6013      115.07
        20         4.0073    -11.6650     -1.9170     -3.1915       96.81
 1/2[<0|r|b>*<b|rxdel|0> + (<0|rxdel|b>*<b|r|0>)*]
 Rotatory Strengths (R) in cgs (10**-40 erg-esu-cm/Gauss)
       state          XX          YY          ZZ     R(length)
         1        65.6898    -87.5140     -3.5616     -8.4620
         2        -0.2300     29.1764     27.6950     18.8805
         3       312.2658     74.2300      5.5735    130.6898
         4      -352.6104   -102.2648    -20.7124   -158.5292
         5         0.2711      8.1240     -0.4787      2.6388
         6        -3.1068     -8.1053     14.1895      0.9925
         7       -36.2293      3.3009      5.5229     -9.1352
         8        14.6901     28.2839    -66.5130     -7.8464
         9       113.7349    102.2034    -91.3447     41.5312
        10        69.5577    -75.1951     13.1725      2.5117
        11         2.7636     -6.0380      1.4463     -0.6094
        12       -38.3035     17.8527      0.9777     -6.4910
        13        11.4042     -2.1820     -3.9489      1.7578
        14         5.4921    -21.1836      9.1257     -2.1886
        15        -5.6635      4.1239     -6.4966     -2.6788
        16        27.3592      3.6873     -0.8538     10.0642
        17         0.8643      2.5349     -3.6853     -0.0953
        18       -23.7901     -4.7257      2.6201     -8.6319
        19        -4.2181      3.5902     -6.1028     -2.2436
        20       -12.1212     -6.2737      1.3453     -5.6832
  1/2[<0|del|b>*<b|r|0> + (<0|r|b>*<b|del|0>)*] (Au)
       state          X           Y           Z        Dip. S.   Osc.(frdel)
         1        -0.2809     -0.0437     -0.0046      0.3292      0.2195
         2        -0.0079     -0.0079     -0.0050      0.0208      0.0138
         3        -0.0712     -0.1085     -0.0002      0.1798      0.1199
         4        -0.1092     -0.0738     -0.0010      0.1840      0.1227
         5        -0.0000     -0.0001      0.0000      0.0001      0.0001
         6        -0.0000     -0.0001     -0.0021      0.0022      0.0015
         7        -0.0011     -0.0001     -0.0012      0.0024      0.0016
         8        -0.0542     -0.0265     -0.0019      0.0826      0.0551
         9        -0.2403     -0.0747     -0.0030      0.3179      0.2119
        10        -0.2672     -0.0870     -0.0001      0.3543      0.2362
        11        -0.0000     -0.0042     -0.0002      0.0044      0.0029
        12        -0.0609     -0.0340     -0.0007      0.0956      0.0637
        13        -0.0073     -0.0317      0.0000      0.0390      0.0260
        14        -0.0407     -0.2047     -0.0001      0.2454      0.1636
        15        -0.0061     -0.0005     -0.0001      0.0067      0.0045
        16        -0.0170     -0.0130     -0.0002      0.0302      0.0201
        17        -0.0008     -0.0004     -0.0014      0.0027      0.0018
        18        -0.0057     -0.0076     -0.0011      0.0143      0.0096
        19        -0.0008     -0.0038     -0.0016      0.0062      0.0041
        20        -0.0006     -0.0000     -0.0013      0.0020      0.0013

 Excitation energies and oscillator strengths:
 
 Excited State   1:      Singlet-A      4.7687 eV  260.00 nm  f=0.2150  <S**2>=0.000
      83 -> 86         0.25407
      83 -> 87         0.12009
      84 -> 86        -0.13307
      84 -> 87         0.14065
      85 -> 86         0.58380
      85 -> 87        -0.15268
 
 Excited State   2:      Singlet-A      4.9907 eV  248.43 nm  f=0.0169  <S**2>=0.000
      83 -> 86        -0.31396
      84 -> 86         0.45581
      84 -> 87        -0.10071
      85 -> 86         0.32370
      85 -> 87         0.21009
 
 Excited State   3:      Singlet-A      5.2324 eV  236.96 nm  f=0.1282  <S**2>=0.000
      80 -> 86         0.44237
      80 -> 92         0.13870
      83 -> 86         0.28752
      84 -> 86         0.36677
      84 -> 87         0.14029
      85 -> 87        -0.10001
 
 Excited State   4:      Singlet-A      5.2981 eV  234.02 nm  f=0.1299  <S**2>=0.000
      80 -> 86         0.47341
      80 -> 92         0.13977
      83 -> 86        -0.26001
      84 -> 86        -0.31402
      84 -> 87        -0.15139
      85 -> 86         0.12347
      85 -> 87         0.13561
 
 Excited State   5:      Singlet-A      5.6328 eV  220.11 nm  f=0.0001  <S**2>=0.000
      81 -> 91         0.10522
      84 -> 89        -0.12648
      84 -> 90         0.35132
      84 -> 91         0.23734
      85 -> 89        -0.15470
      85 -> 90         0.42483
      85 -> 91         0.22125
 
 Excited State   6:      Singlet-A      5.7434 eV  215.87 nm  f=0.0011  <S**2>=0.000
      81 -> 90        -0.27594
      81 -> 91         0.33274
      82 -> 90        -0.24193
      82 -> 91         0.29444
      85 -> 91        -0.27203
 
 Excited State   7:      Singlet-A      6.0638 eV  204.47 nm  f=0.0013  <S**2>=0.000
      79 -> 88         0.67694
      82 -> 88         0.10969
 
 Excited State   8:      Singlet-A      6.0785 eV  203.97 nm  f=0.0566  <S**2>=0.000
      83 -> 86         0.18738
      83 -> 89         0.56517
      83 -> 90         0.16065
      85 -> 87         0.25204
      85 -> 89        -0.11673
 
 Excited State   9:      Singlet-A      6.1103 eV  202.91 nm  f=0.2172  <S**2>=0.000
      83 -> 86         0.35106
      83 -> 87        -0.12762
      83 -> 89        -0.28896
      84 -> 87        -0.13443
      85 -> 87         0.45992
 
 Excited State  10:      Singlet-A      6.3448 eV  195.41 nm  f=0.2428  <S**2>=0.000
      81 -> 86         0.30371
      82 -> 86         0.24169
      83 -> 87         0.49854
      85 -> 87         0.18340
 
 Excited State  11:      Singlet-A      6.4502 eV  192.22 nm  f=0.0026  <S**2>=0.000
      82 -> 86         0.14881
      83 -> 89         0.19193
      84 -> 89        -0.40169
      85 -> 89         0.47114
 
 Excited State  12:      Singlet-A      6.4758 eV  191.46 nm  f=0.0645  <S**2>=0.000
      81 -> 86         0.10727
      82 -> 86         0.55519
      82 -> 92         0.10853
      83 -> 87        -0.25764
      84 -> 87        -0.14677
      84 -> 89         0.13434
      85 -> 87        -0.12005
      85 -> 89        -0.14651
 
 Excited State  13:      Singlet-A      6.5364 eV  189.68 nm  f=0.0287  <S**2>=0.000
      81 -> 86        -0.35538
      82 -> 86         0.24537
      83 -> 86        -0.11577
      84 -> 87         0.47437
      85 -> 87         0.20958
 
 Excited State  14:      Singlet-A      6.5625 eV  188.93 nm  f=0.1679  <S**2>=0.000
      80 -> 86         0.10039
      81 -> 86         0.45795
      82 -> 86        -0.15069
      83 -> 87        -0.30027
      84 -> 87         0.33451
 
 Excited State  15:      Singlet-A      6.8365 eV  181.36 nm  f=0.0041  <S**2>=0.000
      81 -> 88        -0.45015
      82 -> 88         0.50768
      85 -> 88         0.15705
 
 Excited State  16:      Singlet-A      7.0983 eV  174.67 nm  f=0.0209  <S**2>=0.000
      84 -> 90        -0.31224
      84 -> 91        -0.24047
      85 -> 88        -0.11880
      85 -> 90         0.38614
      85 -> 92         0.30711
 
 Excited State  17:      Singlet-A      7.1348 eV  173.77 nm  f=0.0023  <S**2>=0.000
      82 -> 88        -0.17241
      82 -> 91         0.11324
      84 -> 90        -0.15213
      85 -> 88         0.52281
      85 -> 91         0.29457
 
 Excited State  18:      Singlet-A      7.2236 eV  171.64 nm  f=0.0116  <S**2>=0.000
      82 -> 88        -0.10469
      84 -> 90         0.24383
      85 -> 88         0.20401
      85 -> 91        -0.38567
      85 -> 92         0.40975
 
 Excited State  19:      Singlet-A      7.2429 eV  171.18 nm  f=0.0042  <S**2>=0.000
      81 -> 88         0.10639
      82 -> 88         0.16935
      84 -> 91         0.22569
      85 -> 88        -0.27807
      85 -> 90        -0.28628
      85 -> 91         0.24057
      85 -> 92         0.33745
 
 Excited State  20:      Singlet-A      7.3341 eV  169.05 nm  f=0.0006  <S**2>=0.000
      78 -> 93         0.15572
      81 -> 93         0.10082
      83 -> 93        -0.10627
      84 -> 92         0.20372
      84 -> 93        -0.39373
      85 -> 93         0.46494
 This state for optimization and/or second-order correction.
 Total Energy, E(TD-HF/TD-DFT) =  -1807.22790801    
 Copying the excited state density for this state as the 1-particle RhoCI density.
 SavETr:  write IOETrn=   770 NScale= 10 NData=  16 NLR=1 NState=   20 LETran=     370.

 **********************************************************************

            Population analysis using the SCF density.

 **********************************************************************

 Orbital symmetries:
       Occupied  (A) (A) (A) (A) (A) (A) (A) (A) (A) (A) (A) (A)
                 (A) (A) (A) (A) (A) (A) (A) (A) (A) (A) (A) (A)
                 (A) (A) (A) (A) (A) (A) (A) (A) (A) (A) (A) (A)
                 (A) (A) (A) (A) (A) (A) (A) (A) (A) (A) (A) (A)
                 (A) (A) (A) (A) (A) (A) (A) (A) (A) (A) (A) (A)
                 (A) (A) (A) (A) (A) (A) (A) (A) (A) (A) (A) (A)
                 (A) (A) (A) (A) (A) (A) (A) (A) (A) (A) (A) (A)
                 (A)
       Virtual   (A) (A) (A) (A) (A) (A) (A) (A) (A) (A) (A) (A)
                 (A) (A) (A) (A) (A) (A) (A) (A) (A) (A) (A) (A)
                 (A) (A) (A) (A) (A) (A) (A) (A) (A) (A) (A) (A)
                 (A) (A) (A) (A) (A) (A) (A) (A) (A) (A) (A) (A)
                 (A) (A) (A) (A) (A) (A) (A) (A) (A) (A) (A) (A)
                 (A) (A) (A) (A) (A) (A) (A) (A) (A) (A) (A) (A)
                 (A) (A) (A) (A) (A) (A) (A) (A) (A) (A) (A) (A)
                 (A) (A) (A) (A) (A) (A) (A) (A) (A) (A) (A) (A)
                 (A) (A) (A) (A) (A) (A) (A) (A) (A) (A) (A) (A)
                 (A) (A) (A) (A) (A) (A) (A) (A) (A) (A) (A) (A)
                 (A) (A) (A) (A) (A) (A) (A) (A) (A) (A) (A) (A)
                 (A) (A) (A) (A) (A) (A) (A) (A) (A) (A) (A) (A)
                 (A) (A) (A) (A) (A) (A) (A) (A) (A) (A) (A) (A)
                 (A) (A) (A) (A) (A) (A) (A) (A) (A) (A) (A) (A)
                 (A) (A) (A) (A) (A) (A) (A) (A) (A) (A) (A) (A)
                 (A) (A) (A) (A) (A) (A) (A) (A) (A) (A) (A) (A)
                 (A) (A) (A) (A) (A) (A) (A) (A) (A) (A) (A) (A)
                 (A) (A) (A) (A) (A) (A) (A) (A) (A) (A) (A) (A)
                 (A) (A) (A) (A) (A) (A) (A) (A) (A) (A) (A) (A)
                 (A) (A) (A) (A) (A) (A) (A) (A) (A) (A) (A) (A)
                 (A) (A) (A) (A) (A) (A) (A) (A) (A) (A) (A) (A)
                 (A) (A) (A) (A) (A) (A) (A) (A)
 The electronic state is 1-A.
 Alpha  occ. eigenvalues -- -101.64033 -88.95509 -19.28800 -19.27777 -19.27303
 Alpha  occ. eigenvalues --  -19.23407 -19.18336 -14.42955 -14.40350 -10.41882
 Alpha  occ. eigenvalues --  -10.36101 -10.35970 -10.35843 -10.34391 -10.33275
 Alpha  occ. eigenvalues --  -10.31743 -10.30622 -10.28870 -10.28811 -10.28616
 Alpha  occ. eigenvalues --  -10.27936  -9.55664  -8.01690  -7.32175  -7.31195
 Alpha  occ. eigenvalues --   -7.31153  -5.98288  -5.97894  -5.97269  -1.20705
 Alpha  occ. eigenvalues --   -1.17046  -1.16722  -1.11694  -1.11093  -1.03335
 Alpha  occ. eigenvalues --   -1.00404  -0.97879  -0.93731  -0.87106  -0.85769
 Alpha  occ. eigenvalues --   -0.84201  -0.82775  -0.80709  -0.73091  -0.72335
 Alpha  occ. eigenvalues --   -0.70585  -0.68152  -0.66371  -0.65506  -0.63381
 Alpha  occ. eigenvalues --   -0.60310  -0.59396  -0.57656  -0.57340  -0.56738
 Alpha  occ. eigenvalues --   -0.55762  -0.55427  -0.53877  -0.52603  -0.52165
 Alpha  occ. eigenvalues --   -0.51241  -0.50517  -0.49786  -0.48691  -0.48276
 Alpha  occ. eigenvalues --   -0.47848  -0.46906  -0.46259  -0.45651  -0.44067
 Alpha  occ. eigenvalues --   -0.43830  -0.43354  -0.42212  -0.41547  -0.40197
 Alpha  occ. eigenvalues --   -0.39815  -0.38808  -0.38282  -0.36435  -0.33196
 Alpha  occ. eigenvalues --   -0.31639  -0.31493  -0.29887  -0.29128  -0.27517
 Alpha virt. eigenvalues --   -0.00095   0.03733   0.04906   0.06750   0.07664
 Alpha virt. eigenvalues --    0.08437   0.09214   0.10073   0.11200   0.13652
 Alpha virt. eigenvalues --    0.14539   0.15448   0.16619   0.17361   0.18696
 Alpha virt. eigenvalues --    0.19099   0.22063   0.22601   0.23065   0.24126
 Alpha virt. eigenvalues --    0.24441   0.26317   0.28161   0.28443   0.29641
 Alpha virt. eigenvalues --    0.30036   0.32060   0.32620   0.33755   0.35057
 Alpha virt. eigenvalues --    0.35591   0.37597   0.39798   0.40384   0.41862
 Alpha virt. eigenvalues --    0.42520   0.43088   0.44321   0.45159   0.45746
 Alpha virt. eigenvalues --    0.46977   0.48726   0.48953   0.52044   0.54120
 Alpha virt. eigenvalues --    0.56037   0.56615   0.57402   0.57759   0.58114
 Alpha virt. eigenvalues --    0.58705   0.59176   0.61077   0.62289   0.62444
 Alpha virt. eigenvalues --    0.62769   0.63653   0.64581   0.64952   0.65672
 Alpha virt. eigenvalues --    0.66810   0.67855   0.68197   0.69578   0.70265
 Alpha virt. eigenvalues --    0.70915   0.71572   0.72296   0.73362   0.74920
 Alpha virt. eigenvalues --    0.76188   0.76806   0.78140   0.79071   0.79790
 Alpha virt. eigenvalues --    0.80830   0.82126   0.82642   0.84819   0.85233
 Alpha virt. eigenvalues --    0.86226   0.87261   0.87983   0.88456   0.89376
 Alpha virt. eigenvalues --    0.90359   0.90951   0.91649   0.91923   0.92459
 Alpha virt. eigenvalues --    0.92561   0.93152   0.93521   0.95138   0.95351
 Alpha virt. eigenvalues --    0.96414   0.97005   0.97606   0.98287   0.99444
 Alpha virt. eigenvalues --    0.99902   1.01434   1.01676   1.02646   1.03924
 Alpha virt. eigenvalues --    1.05153   1.06207   1.06587   1.08069   1.08960
 Alpha virt. eigenvalues --    1.09624   1.10023   1.12431   1.13189   1.14155
 Alpha virt. eigenvalues --    1.16038   1.17142   1.18574   1.19002   1.21173
 Alpha virt. eigenvalues --    1.22149   1.22827   1.23461   1.27483   1.28048
 Alpha virt. eigenvalues --    1.28923   1.31461   1.32376   1.33331   1.35646
 Alpha virt. eigenvalues --    1.38758   1.39018   1.39949   1.41663   1.42344
 Alpha virt. eigenvalues --    1.44244   1.45059   1.45453   1.48883   1.50404
 Alpha virt. eigenvalues --    1.51597   1.52473   1.53967   1.56287   1.57269
 Alpha virt. eigenvalues --    1.59085   1.60802   1.63310   1.65362   1.69009
 Alpha virt. eigenvalues --    1.72000   1.74213   1.75287   1.77508   1.77784
 Alpha virt. eigenvalues --    1.78187   1.78443   1.80575   1.80846   1.81452
 Alpha virt. eigenvalues --    1.82435   1.83660   1.86542   1.87803   1.88228
 Alpha virt. eigenvalues --    1.89586   1.89856   1.92072   1.92855   1.94122
 Alpha virt. eigenvalues --    1.94937   1.96347   1.96782   1.97218   1.97796
 Alpha virt. eigenvalues --    1.99852   2.01976   2.02342   2.03499   2.05713
 Alpha virt. eigenvalues --    2.06664   2.08209   2.10921   2.12885   2.14133
 Alpha virt. eigenvalues --    2.14823   2.15208   2.17404   2.19506   2.20378
 Alpha virt. eigenvalues --    2.26757   2.28154   2.30167   2.31721   2.33517
 Alpha virt. eigenvalues --    2.34043   2.36344   2.36401   2.37756   2.39249
 Alpha virt. eigenvalues --    2.39644   2.42663   2.45060   2.47998   2.48443
 Alpha virt. eigenvalues --    2.49486   2.50420   2.51977   2.52821   2.54586
 Alpha virt. eigenvalues --    2.56399   2.59355   2.60852   2.62914   2.64338
 Alpha virt. eigenvalues --    2.68355   2.70178   2.70888   2.72376   2.75074
 Alpha virt. eigenvalues --    2.77068   2.79251   2.80586   2.81226   2.82840
 Alpha virt. eigenvalues --    2.86701   2.90557   2.95934   2.98368   3.00648
 Alpha virt. eigenvalues --    3.02709   3.03222   3.06425   3.08673   3.12979
 Alpha virt. eigenvalues --    3.17570   3.26288   3.29994   3.45899   3.89184
 Alpha virt. eigenvalues --    3.99570   4.01424   4.04101   4.06289   4.09742
 Alpha virt. eigenvalues --    4.14783   4.17696   4.18382   4.22429   4.25609
 Alpha virt. eigenvalues --    4.27616   4.29004   4.34717   4.39127   4.48314
 Alpha virt. eigenvalues --    4.50515   4.56685   4.59837   4.73395   4.84211
          Condensed to atoms (all electrons):
               1          2          3          4          5          6
     1  O    8.161718   0.326041  -0.060166   0.004174   0.000195  -0.000000
     2  C    0.326041   4.520998   0.496856  -0.000943  -0.024955  -0.000340
     3  C   -0.060166   0.496856   5.142091   0.456561  -0.029257   0.009491
     4  C    0.004174  -0.000943   0.456561   4.972596   0.525017  -0.056413
     5  C    0.000195  -0.024955  -0.029257   0.525017   4.930168   0.298513
     6  C   -0.000000  -0.000340   0.009491  -0.056413   0.298513   5.018537
     7  N    0.000000   0.000008   0.001072  -0.002598  -0.068935   0.524342
     8  C   -0.000000   0.000000  -0.000017  -0.000331   0.009164  -0.061578
     9  C   -0.000000   0.000000  -0.000000  -0.000044   0.000059   0.001554
    10  N    0.000000   0.000000  -0.000001  -0.000058   0.000053   0.000998
    11  C    0.000000  -0.000000   0.000000   0.000004  -0.000002  -0.000025
    12  C    0.000000   0.000000  -0.000000  -0.000003   0.000001  -0.000003
    13  O    0.000000   0.000000   0.000000  -0.000000   0.000000  -0.000000
    14  O   -0.000000   0.000000   0.000000  -0.000113   0.000003  -0.000008
    15  O   -0.000000  -0.000000   0.000000   0.000000   0.000000  -0.000024
    16  C    0.000000   0.000000   0.000002  -0.000006   0.002961  -0.020460
    17  S    0.000000  -0.000044  -0.000002   0.006346  -0.062922   0.272013
    18  C    0.001653  -0.015309  -0.052511  -0.022028   0.479344  -0.051000
    19  O   -0.000009   0.002805   0.000170   0.003783  -0.060701  -0.006858
    20  C   -0.062396   0.453989  -0.079361  -0.041998  -0.065621   0.008987
    21  Cl   0.006096  -0.055602   0.004465   0.000206   0.004303  -0.000100
    22  H    0.251060  -0.031423  -0.006390   0.000567  -0.000046  -0.000001
    23  H   -0.005160  -0.044226   0.355658  -0.026775   0.002673  -0.000181
    24  H   -0.000043   0.003178  -0.038079   0.355172  -0.030664  -0.014568
    25  H    0.000000  -0.000000   0.000001   0.000049  -0.000400  -0.003039
    26  H   -0.000000   0.000000   0.000022  -0.000187  -0.000495  -0.000324
    27  H   -0.000000   0.000000   0.000000  -0.000000  -0.000000   0.000000
    28  H    0.000000  -0.000000  -0.000000   0.000000   0.000000   0.000001
    29  H    0.000000  -0.000000  -0.000000   0.000000  -0.000000   0.000000
    30  H   -0.000000  -0.000000  -0.000000   0.000000  -0.000062   0.001804
    31  H   -0.000000  -0.000000   0.000000   0.000004  -0.000183   0.000224
    32  H    0.000001   0.001009  -0.000028  -0.000166   0.006565  -0.000076
               7          8          9         10         11         12
     1  O    0.000000  -0.000000  -0.000000   0.000000   0.000000   0.000000
     2  C    0.000008   0.000000   0.000000   0.000000  -0.000000   0.000000
     3  C    0.001072  -0.000017  -0.000000  -0.000001   0.000000  -0.000000
     4  C   -0.002598  -0.000331  -0.000044  -0.000058   0.000004  -0.000003
     5  C   -0.068935   0.009164   0.000059   0.000053  -0.000002   0.000001
     6  C    0.524342  -0.061578   0.001554   0.000998  -0.000025  -0.000003
     7  N    6.929262   0.258690  -0.045264  -0.010144   0.000538  -0.000137
     8  C    0.258690   5.178476   0.335813  -0.118203   0.007336   0.000057
     9  C   -0.045264   0.335813   4.337913   0.287408  -0.025316   0.005228
    10  N   -0.010144  -0.118203   0.287408   7.169072   0.235776  -0.029494
    11  C    0.000538   0.007336  -0.025316   0.235776   5.112430   0.307447
    12  C   -0.000137   0.000057   0.005228  -0.029494   0.307447   4.326795
    13  O   -0.000000   0.000000  -0.000035   0.001821  -0.093337   0.291128
    14  O   -0.000120  -0.000031   0.000463  -0.005935  -0.086250   0.594950
    15  O    0.001769  -0.081747   0.596886  -0.102328   0.009551   0.000684
    16  C   -0.061761   0.288112  -0.030234   0.003201  -0.000087   0.000001
    17  S   -0.086586  -0.064185   0.002833   0.000023   0.000010  -0.000001
    18  C    0.003139  -0.000089   0.000002  -0.000000  -0.000000   0.000000
    19  O    0.000059  -0.000005   0.000000   0.000000   0.000000   0.000000
    20  C   -0.000150   0.000003  -0.000000  -0.000000   0.000000  -0.000000
    21  Cl   0.000000  -0.000000   0.000000  -0.000000   0.000000  -0.000000
    22  H    0.000000  -0.000000  -0.000000   0.000000   0.000000  -0.000000
    23  H    0.000004   0.000000  -0.000000  -0.000000   0.000000  -0.000000
    24  H    0.015062  -0.000457  -0.000023  -0.000057  -0.000015   0.000019
    25  H   -0.040517   0.356710  -0.033226  -0.001446  -0.000182  -0.000005
    26  H    0.033063  -0.011107  -0.013758   0.277449  -0.039520  -0.001377
    27  H   -0.000000  -0.000292  -0.001700  -0.040156   0.369910  -0.025994
    28  H   -0.000057   0.000453  -0.000604  -0.044444   0.367534  -0.019310
    29  H    0.000000  -0.000000   0.000003  -0.000200   0.009740  -0.006661
    30  H    0.003644  -0.011691  -0.002499  -0.000056   0.000001  -0.000000
    31  H    0.002694  -0.037169  -0.002538   0.000317  -0.000031  -0.000000
    32  H    0.000003   0.000000  -0.000000  -0.000000  -0.000000  -0.000000
              13         14         15         16         17         18
     1  O    0.000000  -0.000000  -0.000000   0.000000   0.000000   0.001653
     2  C    0.000000   0.000000  -0.000000   0.000000  -0.000044  -0.015309
     3  C    0.000000   0.000000   0.000000   0.000002  -0.000002  -0.052511
     4  C   -0.000000  -0.000113   0.000000  -0.000006   0.006346  -0.022028
     5  C    0.000000   0.000003   0.000000   0.002961  -0.062922   0.479344
     6  C   -0.000000  -0.000008  -0.000024  -0.020460   0.272013  -0.051000
     7  N   -0.000000  -0.000120   0.001769  -0.061761  -0.086586   0.003139
     8  C    0.000000  -0.000031  -0.081747   0.288112  -0.064185  -0.000089
     9  C   -0.000035   0.000463   0.596886  -0.030234   0.002833   0.000002
    10  N    0.001821  -0.005935  -0.102328   0.003201   0.000023  -0.000000
    11  C   -0.093337  -0.086250   0.009551  -0.000087   0.000010  -0.000000
    12  C    0.291128   0.594950   0.000684   0.000001  -0.000001   0.000000
    13  O    8.218773  -0.081986  -0.000000  -0.000000   0.000000   0.000000
    14  O   -0.081986   8.001602  -0.000003   0.000000   0.000000   0.000000
    15  O   -0.000000  -0.000003   8.075791   0.006624   0.000338  -0.000000
    16  C   -0.000000   0.000000   0.006624   5.331386   0.241992   0.000105
    17  S    0.000000   0.000000   0.000338   0.241992  15.587429  -0.007046
    18  C    0.000000   0.000000  -0.000000   0.000105  -0.007046   4.705148
    19  O    0.000000   0.000000   0.000000   0.000274   0.006674   0.318904
    20  C   -0.000000  -0.000000   0.000000   0.000001   0.000433   0.415592
    21  Cl  -0.000000  -0.000000  -0.000000  -0.000000   0.000009  -0.068982
    22  H    0.000000   0.000000  -0.000000  -0.000000   0.000000   0.000062
    23  H   -0.000000  -0.000001  -0.000000  -0.000000   0.000003   0.000661
    24  H    0.000000   0.000673  -0.000000   0.000049   0.000399   0.006106
    25  H   -0.000000  -0.000000   0.000778  -0.038644   0.009672   0.000004
    26  H    0.000494   0.023724   0.002488   0.000905   0.000308   0.000000
    27  H    0.002917   0.000761   0.001408  -0.000009   0.000000  -0.000000
    28  H    0.001973   0.000850   0.007618   0.000020  -0.000001   0.000000
    29  H    0.224923   0.009094   0.000000   0.000000  -0.000000  -0.000000
    30  H    0.000000   0.000000   0.000542   0.363398  -0.033496   0.000001
    31  H   -0.000000   0.000000   0.003707   0.366129  -0.041839  -0.000000
    32  H   -0.000000   0.000000  -0.000000  -0.000007   0.000268  -0.026913
              19         20         21         22         23         24
     1  O   -0.000009  -0.062396   0.006096   0.251060  -0.005160  -0.000043
     2  C    0.002805   0.453989  -0.055602  -0.031423  -0.044226   0.003178
     3  C    0.000170  -0.079361   0.004465  -0.006390   0.355658  -0.038079
     4  C    0.003783  -0.041998   0.000206   0.000567  -0.026775   0.355172
     5  C   -0.060701  -0.065621   0.004303  -0.000046   0.002673  -0.030664
     6  C   -0.006858   0.008987  -0.000100  -0.000001  -0.000181  -0.014568
     7  N    0.000059  -0.000150   0.000000   0.000000   0.000004   0.015062
     8  C   -0.000005   0.000003  -0.000000  -0.000000   0.000000  -0.000457
     9  C    0.000000  -0.000000   0.000000  -0.000000  -0.000000  -0.000023
    10  N    0.000000  -0.000000  -0.000000   0.000000  -0.000000  -0.000057
    11  C    0.000000   0.000000   0.000000   0.000000   0.000000  -0.000015
    12  C    0.000000  -0.000000  -0.000000  -0.000000  -0.000000   0.000019
    13  O    0.000000  -0.000000  -0.000000   0.000000  -0.000000   0.000000
    14  O    0.000000  -0.000000  -0.000000   0.000000  -0.000001   0.000673
    15  O    0.000000   0.000000  -0.000000  -0.000000  -0.000000  -0.000000
    16  C    0.000274   0.000001  -0.000000  -0.000000  -0.000000   0.000049
    17  S    0.006674   0.000433   0.000009   0.000000   0.000003   0.000399
    18  C    0.318904   0.415592  -0.068982   0.000062   0.000661   0.006106
    19  O    8.215291  -0.075563  -0.010895   0.000001   0.000001  -0.000044
    20  C   -0.075563   5.430475   0.213665   0.008439   0.005188   0.000271
    21  Cl  -0.010895   0.213665  16.869105  -0.000267  -0.000135   0.000008
    22  H    0.000001   0.008439  -0.000267   0.348128   0.006167  -0.000007
    23  H    0.000001   0.005188  -0.000135   0.006167   0.570443  -0.004677
    24  H   -0.000044   0.000271   0.000008  -0.000007  -0.004677   0.519667
    25  H   -0.000000  -0.000000   0.000000   0.000000  -0.000000   0.000018
    26  H   -0.000000  -0.000000   0.000000   0.000000  -0.000001   0.002031
    27  H   -0.000000  -0.000000  -0.000000   0.000000  -0.000000   0.000000
    28  H    0.000000  -0.000000   0.000000  -0.000000   0.000000  -0.000000
    29  H   -0.000000   0.000000   0.000000  -0.000000   0.000000  -0.000000
    30  H    0.000000   0.000000   0.000000   0.000000   0.000000  -0.000000
    31  H   -0.000000   0.000000  -0.000000   0.000000   0.000000  -0.000002
    32  H    0.240715  -0.010918   0.034609  -0.000000  -0.000000   0.000004
              25         26         27         28         29         30
     1  O    0.000000  -0.000000  -0.000000   0.000000   0.000000  -0.000000
     2  C   -0.000000   0.000000   0.000000  -0.000000  -0.000000  -0.000000
     3  C    0.000001   0.000022   0.000000  -0.000000  -0.000000  -0.000000
     4  C    0.000049  -0.000187  -0.000000   0.000000   0.000000   0.000000
     5  C   -0.000400  -0.000495  -0.000000   0.000000  -0.000000  -0.000062
     6  C   -0.003039  -0.000324   0.000000   0.000001   0.000000   0.001804
     7  N   -0.040517   0.033063  -0.000000  -0.000057   0.000000   0.003644
     8  C    0.356710  -0.011107  -0.000292   0.000453  -0.000000  -0.011691
     9  C   -0.033226  -0.013758  -0.001700  -0.000604   0.000003  -0.002499
    10  N   -0.001446   0.277449  -0.040156  -0.044444  -0.000200  -0.000056
    11  C   -0.000182  -0.039520   0.369910   0.367534   0.009740   0.000001
    12  C   -0.000005  -0.001377  -0.025994  -0.019310  -0.006661  -0.000000
    13  O   -0.000000   0.000494   0.002917   0.001973   0.224923   0.000000
    14  O   -0.000000   0.023724   0.000761   0.000850   0.009094   0.000000
    15  O    0.000778   0.002488   0.001408   0.007618   0.000000   0.000542
    16  C   -0.038644   0.000905  -0.000009   0.000020   0.000000   0.363398
    17  S    0.009672   0.000308   0.000000  -0.000001  -0.000000  -0.033496
    18  C    0.000004   0.000000  -0.000000   0.000000  -0.000000   0.000001
    19  O   -0.000000  -0.000000  -0.000000   0.000000  -0.000000   0.000000
    20  C   -0.000000  -0.000000  -0.000000  -0.000000   0.000000   0.000000
    21  Cl   0.000000   0.000000  -0.000000   0.000000   0.000000   0.000000
    22  H    0.000000   0.000000   0.000000  -0.000000  -0.000000   0.000000
    23  H   -0.000000  -0.000001  -0.000000   0.000000   0.000000   0.000000
    24  H    0.000018   0.002031   0.000000  -0.000000  -0.000000  -0.000000
    25  H    0.561816   0.000693   0.000033  -0.000018   0.000000  -0.005110
    26  H    0.000693   0.341892   0.002100   0.002841  -0.000052  -0.000018
    27  H    0.000033   0.002100   0.525781  -0.034563  -0.000365   0.000000
    28  H   -0.000018   0.002841  -0.034563   0.506016  -0.000271  -0.000000
    29  H    0.000000  -0.000052  -0.000365  -0.000271   0.340674  -0.000000
    30  H   -0.005110  -0.000018   0.000000  -0.000000  -0.000000   0.519223
    31  H    0.005017  -0.000005  -0.000000   0.000001   0.000000  -0.030381
    32  H    0.000000   0.000000  -0.000000   0.000000   0.000000   0.000000
              31         32
     1  O   -0.000000   0.000001
     2  C   -0.000000   0.001009
     3  C    0.000000  -0.000028
     4  C    0.000004  -0.000166
     5  C   -0.000183   0.006565
     6  C    0.000224  -0.000076
     7  N    0.002694   0.000003
     8  C   -0.037169   0.000000
     9  C   -0.002538  -0.000000
    10  N    0.000317  -0.000000
    11  C   -0.000031  -0.000000
    12  C   -0.000000  -0.000000
    13  O   -0.000000  -0.000000
    14  O    0.000000   0.000000
    15  O    0.003707  -0.000000
    16  C    0.366129  -0.000007
    17  S   -0.041839   0.000268
    18  C   -0.000000  -0.026913
    19  O   -0.000000   0.240715
    20  C    0.000000  -0.010918
    21  Cl  -0.000000   0.034609
    22  H    0.000000  -0.000000
    23  H    0.000000  -0.000000
    24  H   -0.000002   0.000004
    25  H    0.005017   0.000000
    26  H   -0.000005   0.000000
    27  H   -0.000000  -0.000000
    28  H    0.000001   0.000000
    29  H    0.000000   0.000000
    30  H   -0.030381   0.000000
    31  H    0.535550   0.000000
    32  H    0.000000   0.320906
 Mulliken charges:
               1
     1  O   -0.623162
     2  C    0.367959
     3  C   -0.200575
     4  C   -0.172815
     5  C    0.085224
     6  C    0.078533
     7  N   -0.457081
     8  C   -0.047911
     9  C    0.587080
    10  N   -0.623597
    11  C   -0.175512
    12  C    0.556677
    13  O   -0.566671
    14  O   -0.457672
    15  O   -0.524082
    16  C   -0.453952
    17  S    0.167372
    18  C    0.313158
    19  O   -0.634603
    20  C   -0.201035
    21  Cl   0.003515
    22  H    0.423710
    23  H    0.140356
    24  H    0.185980
    25  H    0.187794
    26  H    0.378832
    27  H    0.200169
    28  H    0.211960
    29  H    0.423116
    30  H    0.194699
    31  H    0.198505
    32  H    0.434028
 Sum of Mulliken charges =  -0.00000
 Mulliken charges with hydrogens summed into heavy atoms:
               1
     1  O   -0.199452
     2  C    0.367959
     3  C   -0.060219
     4  C    0.013165
     5  C    0.085224
     6  C    0.078533
     7  N   -0.457081
     8  C    0.139883
     9  C    0.587080
    10  N   -0.244764
    11  C    0.236617
    12  C    0.556677
    13  O   -0.143555
    14  O   -0.457672
    15  O   -0.524082
    16  C   -0.060748
    17  S    0.167372
    18  C    0.313158
    19  O   -0.200575
    20  C   -0.201035
    21  Cl   0.003515
 Electronic spatial extent (au):  <R**2>=           9900.4215
 Charge=             -0.0000 electrons
 Dipole moment (field-independent basis, Debye):
    X=             -0.2439    Y=              4.5689    Z=              0.2062  Tot=              4.5800
 Quadrupole moment (field-independent basis, Debye-Ang):
   XX=           -132.6882   YY=           -116.6399   ZZ=           -133.1423
   XY=             12.0988   XZ=              0.3396   YZ=             -1.8684
 Traceless Quadrupole moment (field-independent basis, Debye-Ang):
   XX=             -5.1981   YY=             10.8503   ZZ=             -5.6522
   XY=             12.0988   XZ=              0.3396   YZ=             -1.8684
 Octapole moment (field-independent basis, Debye-Ang**2):
  XXX=             36.9211  YYY=            115.4153  ZZZ=             -4.7342  XYY=            -13.6804
  XXY=             90.6068  XXZ=              2.8285  XZZ=             18.5439  YZZ=              4.0519
  YYZ=             -2.7645  XYZ=            -18.9334
 Hexadecapole moment (field-independent basis, Debye-Ang**3):
 XXXX=          -9409.5797 YYYY=          -2425.0284 ZZZZ=           -220.0688 XXXY=            732.4997
 XXXZ=             37.4180 YYYX=             86.7385 YYYZ=            -30.3220 ZZZX=            -10.3257
 ZZZY=            -11.4030 XXYY=          -1723.9445 XXZZ=          -1568.0207 YYZZ=           -518.6136
 XXYZ=            -35.3483 YYXZ=            -41.9398 ZZXY=             20.9239
 N-N= 1.889030865514D+03 E-N=-8.034478492631D+03  KE= 1.796272767787D+03
 1\1\GINC-C078\SP\RCAM-B3LYP TD-FC\6-31G(d)\C12H11Cl1N2O5S1\XYCAO\28-De
 c-2023\0\\# td=(nstates=20,root=20) cam-b3lyp/6-31g(d)\\Title\\0,1\O,0
 ,4.396573,2.850248,-0.00824\C,0,3.391107,1.942356,-0.06987\C,0,2.04671
 ,2.298056,-0.24003\C,0,1.072301,1.31432,-0.291955\C,0,1.378319,-0.0514
 98,-0.172647\C,0,0.270027,-1.027871,-0.228224\N,0,-0.89981,-0.677178,-
 0.618224\C,0,-1.862509,-1.772756,-0.624256\C,0,-3.269684,-1.315665,-0.
 210583\N,0,-3.489045,0.015689,-0.341658\C,0,-4.737268,0.61788,0.051818
 \C,0,-4.554137,2.113493,0.194169\O,0,-5.70408,2.714712,0.563013\O,0,-3
 .519328,2.713406,-0.00124\O,0,-4.119598,-2.113383,0.171865\C,0,-1.3621
 54,-2.931185,0.266381\S,0,0.466224,-2.745444,0.286056\C,0,2.733477,-0.
 409559,-0.009041\O,0,3.057174,-1.718055,0.081024\C,0,3.719966,0.588694
 ,0.042417\Cl,0,5.397243,0.110667,0.246293\H,0,4.022006,3.74001,-0.1048
 27\H,0,1.774459,3.347327,-0.325751\H,0,0.032334,1.590138,-0.420516\H,0
 ,-1.951343,-2.125261,-1.664939\H,0,-2.700305,0.619794,-0.546107\H,0,-5
 .536794,0.43096,-0.678856\H,0,-5.093384,0.197294,1.000742\H,0,-5.51006
 8,3.668718,0.62926\H,0,-1.63265,-3.907631,-0.136414\H,0,-1.755624,-2.8
 54131,1.28333\H,0,4.017782,-1.804061,0.218919\\Version=ES64L-G16RevA.0
 3\State=1-A\HF=-1807.4974322\RMSD=8.848e-09\PG=C01 [X(C12H11Cl1N2O5S1)
 ]\\@


 TERENCE, THIS IS STUPID STUFF:
 YOU EAT YOUR VICTUALS FAST ENOUGH;
 THERE CAN'T BE MUCH AMISS, 'TIS CLEAR
 TO SEE THE RATE YOU DRINK YOUR BEER.
 BUT OH, GOOD LORD, THE VERSE YOU MAKE,
 IT GIVES A CHAP THE BELLY-ACHE.
 THE COW, THE OLD COW, SHE IS DEAD;
 IT SLEEPS WELL, THE HORNED HEAD:
 WE POOR LADS, 'TIS OUR TURN NOW
 TO HEAR SUCH TUNES AS KILLED THE COW.
 PRETTY FRIENDSHIP 'TIS TO RHYME
 YOUR FRIENDS TO DEATH BEFORE THEIR TIME.
 MOPING, MELANCHOLY MAD:
 COME PIPE A TUNE TO DANCE TO, LAD.

     -- A. E. HOUSMAN
 Job cpu time:       0 days  0 hours 53 minutes 40.9 seconds.
 Elapsed time:       0 days  0 hours  1 minutes 41.1 seconds.
 File lengths (MBytes):  RWF=   1432 Int=      0 D2E=      0 Chk=     90 Scr=      1
 Normal termination of Gaussian 16 at Thu Dec 28 13:14:22 2023.
