 Entering Gaussian System, Link 0=g16
 Input=molecule_13_1.com
 Output=molecule_13_1.log
 Initial command:
 /share/apps/g16/A03/l1.exe "/tmp/954110.tmpdir/scr/Gau-27864.inp" -scrdir="/tmp/954110.tmpdir/scr/"
 Entering Link 1 = /share/apps/g16/A03/l1.exe PID=     27865.
  
 Copyright (c) 1988,1990,1992,1993,1995,1998,2003,2009,2016,
            Gaussian, Inc.  All Rights Reserved.
  
 This is part of the Gaussian(R) 16 program.  It is based on
 the Gaussian(R) 09 system (copyright 2009, Gaussian, Inc.),
 the Gaussian(R) 03 system (copyright 2003, Gaussian, Inc.),
 the Gaussian(R) 98 system (copyright 1998, Gaussian, Inc.),
 the Gaussian(R) 94 system (copyright 1995, Gaussian, Inc.),
 the Gaussian 92(TM) system (copyright 1992, Gaussian, Inc.),
 the Gaussian 90(TM) system (copyright 1990, Gaussian, Inc.),
 the Gaussian 88(TM) system (copyright 1988, Gaussian, Inc.),
 the Gaussian 86(TM) system (copyright 1986, Carnegie Mellon
 University), and the Gaussian 82(TM) system (copyright 1983,
 Carnegie Mellon University). Gaussian is a federally registered
 trademark of Gaussian, Inc.
  
 This software contains proprietary and confidential information,
 including trade secrets, belonging to Gaussian, Inc.
  
 This software is provided under written license and may be
 used, copied, transmitted, or stored only in accord with that
 written license.
  
 The following legend is applicable only to US Government
 contracts under FAR:
  
                    RESTRICTED RIGHTS LEGEND
  
 Use, reproduction and disclosure by the US Government is
 subject to restrictions as set forth in subparagraphs (a)
 and (c) of the Commercial Computer Software - Restricted
 Rights clause in FAR 52.227-19.
  
 Gaussian, Inc.
 340 Quinnipiac St., Bldg. 40, Wallingford CT 06492
  
  
 ---------------------------------------------------------------
 Warning -- This program may not be used in any manner that
 competes with the business of Gaussian, Inc. or will provide
 assistance to any competitor of Gaussian, Inc.  The licensee
 of this program is prohibited from giving any competitor of
 Gaussian, Inc. access to this program.  By using this program,
 the user acknowledges that Gaussian, Inc. is engaged in the
 business of creating and licensing software in the field of
 computational chemistry and represents and warrants to the
 licensee that it is not a competitor of Gaussian, Inc. and that
 it will not use this program in any manner prohibited above.
 ---------------------------------------------------------------
  

 Cite this work as:
 Gaussian 16, Revision A.03,
 M. J. Frisch, G. W. Trucks, H. B. Schlegel, G. E. Scuseria, 
 M. A. Robb, J. R. Cheeseman, G. Scalmani, V. Barone, 
 G. A. Petersson, H. Nakatsuji, X. Li, M. Caricato, A. V. Marenich, 
 J. Bloino, B. G. Janesko, R. Gomperts, B. Mennucci, H. P. Hratchian, 
 J. V. Ortiz, A. F. Izmaylov, J. L. Sonnenberg, D. Williams-Young, 
 F. Ding, F. Lipparini, F. Egidi, J. Goings, B. Peng, A. Petrone, 
 T. Henderson, D. Ranasinghe, V. G. Zakrzewski, J. Gao, N. Rega, 
 G. Zheng, W. Liang, M. Hada, M. Ehara, K. Toyota, R. Fukuda, 
 J. Hasegawa, M. Ishida, T. Nakajima, Y. Honda, O. Kitao, H. Nakai, 
 T. Vreven, K. Throssell, J. A. Montgomery, Jr., J. E. Peralta, 
 F. Ogliaro, M. J. Bearpark, J. J. Heyd, E. N. Brothers, K. N. Kudin, 
 V. N. Staroverov, T. A. Keith, R. Kobayashi, J. Normand, 
 K. Raghavachari, A. P. Rendell, J. C. Burant, S. S. Iyengar, 
 J. Tomasi, M. Cossi, J. M. Millam, M. Klene, C. Adamo, R. Cammi, 
 J. W. Ochterski, R. L. Martin, K. Morokuma, O. Farkas, 
 J. B. Foresman, and D. J. Fox, Gaussian, Inc., Wallingford CT, 2016.
 
 ******************************************
 Gaussian 16:  ES64L-G16RevA.03 25-Dec-2016
                28-Dec-2023 
 ******************************************
 %nprocs=32
 Will use up to   32 processors via shared memory.
 %chk=molecule_13_1.chk
 %mem=10GB
 --------------------
 # opt b3lyp/6-31g(d)
 --------------------
 1/18=20,19=15,26=3,38=1/1,3;
 2/9=110,12=2,17=6,18=5,40=1/2;
 3/5=1,6=6,7=1,11=2,25=1,30=1,71=1,74=-5/1,2,3;
 4//1;
 5/5=2,38=5/2;
 6/7=2,8=2,9=2,10=2,28=1/1;
 7//1,2,3,16;
 1/18=20,19=15,26=3/3(2);
 2/9=110/2;
 99//99;
 2/9=110/2;
 3/5=1,6=6,7=1,11=2,25=1,30=1,71=1,74=-5/1,2,3;
 4/5=5,16=3,69=1/1;
 5/5=2,38=5/2;
 7//1,2,3,16;
 1/18=20,19=15,26=3/3(-5);
 2/9=110/2;
 6/7=2,8=2,9=2,10=2,19=2,28=1/1;
 99/9=1/99;
 -------------
 molecule_13_1
 -------------
 Symbolic Z-matrix:
 Charge =  0 Multiplicity = 1
 O                    -1.5398   -1.8469    0.7139 
 C                    -2.5213   -1.1314    0.388 
 C                    -3.7594   -1.7542    0.1119 
 O                    -3.9377   -3.1527    0.0632 
 C                    -2.9184   -4.1432    0.1562 
 C                    -4.8836   -0.9518   -0.1178 
 C                    -6.2177   -1.5915   -0.3961 
 N                    -4.7868    0.4024   -0.0403 
 C                    -3.6032    1.0413    0.1989 
 C                    -2.4038    0.2878    0.358 
 C                    -1.159     0.9895    0.5069 
 C                     0.2037    0.283     0.5089 
 O                     0.4751   -0.2175    1.7935 
 C                     1.3841    1.1523   -0.0045 
 C                     2.5954    0.3331   -0.4891 
 C                     3.3236   -0.3962    0.6527 
 C                     4.6133   -1.0888    0.1823 
 C                     5.7582   -0.0944   -0.0824 
 C                     7.1094   -0.7957   -0.2916 
 C                     7.1691   -1.5842   -1.5996 
 C                    -1.1944    2.3858    0.6861 
 C                    -2.3786    3.1007    0.5801 
 C                    -3.5843    2.4477    0.3065 
 O                    -4.7845    3.1645    0.1535 
 C                    -4.9045    4.5804    0.2482 
 H                    -3.372    -5.1404   -0.0157 
 H                    -2.1443   -3.9736   -0.6223 
 H                    -2.4689   -4.1386    1.1713 
 H                    -6.5667   -2.134     0.5075 
 H                    -6.9819   -0.8347   -0.6715 
 H                    -6.1258   -2.3079   -1.2399 
 H                    -5.6594    0.962    -0.1737 
 H                     0.1507   -0.5641   -0.2041 
 H                     0.5259    0.5595    2.41 
 H                     1.7194    1.8631    0.7819 
 H                     1.0328    1.7528   -0.8727 
 H                     2.2725   -0.4007   -1.2596 
 H                     3.2956    1.0411   -0.9792 
 H                     2.6552   -1.1847    1.0574 
 H                     3.5535    0.3122    1.4785 
 H                     4.9303   -1.7967    0.9793 
 H                     4.4006   -1.6831   -0.7323 
 H                     5.859     0.5849    0.7921 
 H                     5.5304    0.5304   -0.9718 
 H                     7.9069   -0.0217   -0.3145 
 H                     7.3253   -1.4738    0.5622 
 H                     6.4742   -2.4486   -1.5689 
 H                     6.9103   -0.9307   -2.4594 
 H                     8.1984   -1.9735   -1.7488 
 H                    -0.2948    2.948     0.8924 
 H                    -2.3403    4.1748    0.6997 
 H                    -4.6021    4.9223    1.2603 
 H                    -4.2769    5.0698   -0.526 
 H                    -5.9629    4.866     0.0794 
 

 GradGradGradGradGradGradGradGradGradGradGradGradGradGradGradGradGradGrad
 Berny optimization.
 Initialization pass.
                           ----------------------------
                           !    Initial Parameters    !
                           ! (Angstroms and Degrees)  !
 --------------------------                            --------------------------
 ! Name  Definition              Value          Derivative Info.                !
 --------------------------------------------------------------------------------
 ! R1    R(1,2)                  1.2576         estimate D2E/DX2                !
 ! R2    R(2,3)                  1.4132         estimate D2E/DX2                !
 ! R3    R(2,10)                 1.4244         estimate D2E/DX2                !
 ! R4    R(3,4)                  1.4107         estimate D2E/DX2                !
 ! R5    R(3,6)                  1.4002         estimate D2E/DX2                !
 ! R6    R(4,5)                  1.4243         estimate D2E/DX2                !
 ! R7    R(5,26)                 1.1089         estimate D2E/DX2                !
 ! R8    R(5,27)                 1.1109         estimate D2E/DX2                !
 ! R9    R(5,28)                 1.1102         estimate D2E/DX2                !
 ! R10   R(6,7)                  1.5055         estimate D2E/DX2                !
 ! R11   R(6,8)                  1.3599         estimate D2E/DX2                !
 ! R12   R(7,29)                 1.1102         estimate D2E/DX2                !
 ! R13   R(7,30)                 1.1102         estimate D2E/DX2                !
 ! R14   R(7,31)                 1.1107         estimate D2E/DX2                !
 ! R15   R(8,9)                  1.3661         estimate D2E/DX2                !
 ! R16   R(8,32)                 1.0452         estimate D2E/DX2                !
 ! R17   R(9,10)                 1.4254         estimate D2E/DX2                !
 ! R18   R(9,23)                 1.4106         estimate D2E/DX2                !
 ! R19   R(10,11)                1.4367         estimate D2E/DX2                !
 ! R20   R(11,12)                1.535          estimate D2E/DX2                !
 ! R21   R(11,21)                1.4082         estimate D2E/DX2                !
 ! R22   R(12,13)                1.4051         estimate D2E/DX2                !
 ! R23   R(12,14)                1.5533         estimate D2E/DX2                !
 ! R24   R(12,33)                1.1085         estimate D2E/DX2                !
 ! R25   R(13,34)                0.9932         estimate D2E/DX2                !
 ! R26   R(14,15)                1.5405         estimate D2E/DX2                !
 ! R27   R(14,35)                1.1118         estimate D2E/DX2                !
 ! R28   R(14,36)                1.1126         estimate D2E/DX2                !
 ! R29   R(15,16)                1.5381         estimate D2E/DX2                !
 ! R30   R(15,37)                1.1119         estimate D2E/DX2                !
 ! R31   R(15,38)                1.1098         estimate D2E/DX2                !
 ! R32   R(16,17)                1.5376         estimate D2E/DX2                !
 ! R33   R(16,39)                1.1101         estimate D2E/DX2                !
 ! R34   R(16,40)                1.112          estimate D2E/DX2                !
 ! R35   R(17,18)                1.5394         estimate D2E/DX2                !
 ! R36   R(17,41)                1.1121         estimate D2E/DX2                !
 ! R37   R(17,42)                1.1113         estimate D2E/DX2                !
 ! R38   R(18,19)                1.5367         estimate D2E/DX2                !
 ! R39   R(18,43)                1.1119         estimate D2E/DX2                !
 ! R40   R(18,44)                1.1105         estimate D2E/DX2                !
 ! R41   R(19,20)                1.5285         estimate D2E/DX2                !
 ! R42   R(19,45)                1.1116         estimate D2E/DX2                !
 ! R43   R(19,46)                1.1115         estimate D2E/DX2                !
 ! R44   R(20,47)                1.1095         estimate D2E/DX2                !
 ! R45   R(20,48)                1.1105         estimate D2E/DX2                !
 ! R46   R(20,49)                1.1105         estimate D2E/DX2                !
 ! R47   R(21,22)                1.3873         estimate D2E/DX2                !
 ! R48   R(21,50)                1.0807         estimate D2E/DX2                !
 ! R49   R(22,23)                1.3982         estimate D2E/DX2                !
 ! R50   R(22,51)                1.0814         estimate D2E/DX2                !
 ! R51   R(23,24)                1.4063         estimate D2E/DX2                !
 ! R52   R(24,25)                1.4241         estimate D2E/DX2                !
 ! R53   R(25,52)                1.1103         estimate D2E/DX2                !
 ! R54   R(25,53)                1.1103         estimate D2E/DX2                !
 ! R55   R(25,54)                1.1092         estimate D2E/DX2                !
 ! A1    A(1,2,3)              118.9258         estimate D2E/DX2                !
 ! A2    A(1,2,10)             120.5282         estimate D2E/DX2                !
 ! A3    A(3,2,10)             120.4825         estimate D2E/DX2                !
 ! A4    A(2,3,4)              123.6694         estimate D2E/DX2                !
 ! A5    A(2,3,6)              118.8775         estimate D2E/DX2                !
 ! A6    A(4,3,6)              117.4511         estimate D2E/DX2                !
 ! A7    A(3,4,5)              126.6349         estimate D2E/DX2                !
 ! A8    A(4,5,26)             108.8144         estimate D2E/DX2                !
 ! A9    A(4,5,27)             110.2887         estimate D2E/DX2                !
 ! A10   A(4,5,28)             110.2779         estimate D2E/DX2                !
 ! A11   A(26,5,27)            108.2819         estimate D2E/DX2                !
 ! A12   A(26,5,28)            108.1245         estimate D2E/DX2                !
 ! A13   A(27,5,28)            110.9776         estimate D2E/DX2                !
 ! A14   A(3,6,7)              119.8892         estimate D2E/DX2                !
 ! A15   A(3,6,8)              120.2775         estimate D2E/DX2                !
 ! A16   A(7,6,8)              119.7857         estimate D2E/DX2                !
 ! A17   A(6,7,29)             109.6176         estimate D2E/DX2                !
 ! A18   A(6,7,30)             111.4801         estimate D2E/DX2                !
 ! A19   A(6,7,31)             109.9488         estimate D2E/DX2                !
 ! A20   A(29,7,30)            108.5785         estimate D2E/DX2                !
 ! A21   A(29,7,31)            109.217          estimate D2E/DX2                !
 ! A22   A(30,7,31)            107.9492         estimate D2E/DX2                !
 ! A23   A(6,8,9)              122.505          estimate D2E/DX2                !
 ! A24   A(6,8,32)             117.8061         estimate D2E/DX2                !
 ! A25   A(9,8,32)             119.6887         estimate D2E/DX2                !
 ! A26   A(8,9,10)             120.0899         estimate D2E/DX2                !
 ! A27   A(8,9,23)             119.4214         estimate D2E/DX2                !
 ! A28   A(10,9,23)            120.4818         estimate D2E/DX2                !
 ! A29   A(2,10,9)             117.3649         estimate D2E/DX2                !
 ! A30   A(2,10,11)            123.7749         estimate D2E/DX2                !
 ! A31   A(9,10,11)            118.846          estimate D2E/DX2                !
 ! A32   A(10,11,12)           122.9927         estimate D2E/DX2                !
 ! A33   A(10,11,21)           118.4046         estimate D2E/DX2                !
 ! A34   A(12,11,21)           118.5898         estimate D2E/DX2                !
 ! A35   A(11,12,13)           109.6707         estimate D2E/DX2                !
 ! A36   A(11,12,14)           114.6226         estimate D2E/DX2                !
 ! A37   A(11,12,33)           107.9659         estimate D2E/DX2                !
 ! A38   A(13,12,14)           110.7779         estimate D2E/DX2                !
 ! A39   A(13,12,33)           108.9703         estimate D2E/DX2                !
 ! A40   A(14,12,33)           104.5616         estimate D2E/DX2                !
 ! A41   A(12,13,34)           107.3801         estimate D2E/DX2                !
 ! A42   A(12,14,15)           113.8229         estimate D2E/DX2                !
 ! A43   A(12,14,35)           110.6834         estimate D2E/DX2                !
 ! A44   A(12,14,36)           108.6659         estimate D2E/DX2                !
 ! A45   A(15,14,35)           108.9864         estimate D2E/DX2                !
 ! A46   A(15,14,36)           106.8474         estimate D2E/DX2                !
 ! A47   A(35,14,36)           107.5852         estimate D2E/DX2                !
 ! A48   A(14,15,16)           113.0092         estimate D2E/DX2                !
 ! A49   A(14,15,37)           109.9118         estimate D2E/DX2                !
 ! A50   A(14,15,38)           107.2029         estimate D2E/DX2                !
 ! A51   A(16,15,37)           109.8138         estimate D2E/DX2                !
 ! A52   A(16,15,38)           109.3654         estimate D2E/DX2                !
 ! A53   A(37,15,38)           107.3497         estimate D2E/DX2                !
 ! A54   A(15,16,17)           112.5549         estimate D2E/DX2                !
 ! A55   A(15,16,39)           108.8056         estimate D2E/DX2                !
 ! A56   A(15,16,40)           110.3091         estimate D2E/DX2                !
 ! A57   A(17,16,39)           107.2545         estimate D2E/DX2                !
 ! A58   A(17,16,40)           109.9206         estimate D2E/DX2                !
 ! A59   A(39,16,40)           107.8328         estimate D2E/DX2                !
 ! A60   A(16,17,18)           112.672          estimate D2E/DX2                !
 ! A61   A(16,17,41)           107.8517         estimate D2E/DX2                !
 ! A62   A(16,17,42)           109.3982         estimate D2E/DX2                !
 ! A63   A(18,17,41)           108.809          estimate D2E/DX2                !
 ! A64   A(18,17,42)           110.2609         estimate D2E/DX2                !
 ! A65   A(41,17,42)           107.6957         estimate D2E/DX2                !
 ! A66   A(17,18,19)           112.4935         estimate D2E/DX2                !
 ! A67   A(17,18,43)           109.0764         estimate D2E/DX2                !
 ! A68   A(17,18,44)           110.4006         estimate D2E/DX2                !
 ! A69   A(19,18,43)           107.8287         estimate D2E/DX2                !
 ! A70   A(19,18,44)           109.1536         estimate D2E/DX2                !
 ! A71   A(43,18,44)           107.7432         estimate D2E/DX2                !
 ! A72   A(18,19,20)           112.7236         estimate D2E/DX2                !
 ! A73   A(18,19,45)           108.4141         estimate D2E/DX2                !
 ! A74   A(18,19,46)           110.1606         estimate D2E/DX2                !
 ! A75   A(20,19,45)           108.2739         estimate D2E/DX2                !
 ! A76   A(20,19,46)           109.5755         estimate D2E/DX2                !
 ! A77   A(45,19,46)           107.5339         estimate D2E/DX2                !
 ! A78   A(19,20,47)           110.7182         estimate D2E/DX2                !
 ! A79   A(19,20,48)           110.4798         estimate D2E/DX2                !
 ! A80   A(19,20,49)           109.3914         estimate D2E/DX2                !
 ! A81   A(47,20,48)           109.5069         estimate D2E/DX2                !
 ! A82   A(47,20,49)           108.126          estimate D2E/DX2                !
 ! A83   A(48,20,49)           108.5579         estimate D2E/DX2                !
 ! A84   A(11,21,22)           121.513          estimate D2E/DX2                !
 ! A85   A(11,21,50)           121.278          estimate D2E/DX2                !
 ! A86   A(22,21,50)           117.1976         estimate D2E/DX2                !
 ! A87   A(21,22,23)           120.6874         estimate D2E/DX2                !
 ! A88   A(21,22,51)           118.2385         estimate D2E/DX2                !
 ! A89   A(23,22,51)           121.0676         estimate D2E/DX2                !
 ! A90   A(9,23,22)            119.479          estimate D2E/DX2                !
 ! A91   A(9,23,24)            119.2381         estimate D2E/DX2                !
 ! A92   A(22,23,24)           121.2775         estimate D2E/DX2                !
 ! A93   A(23,24,25)           124.8506         estimate D2E/DX2                !
 ! A94   A(24,25,52)           110.1105         estimate D2E/DX2                !
 ! A95   A(24,25,53)           110.1352         estimate D2E/DX2                !
 ! A96   A(24,25,54)           109.0435         estimate D2E/DX2                !
 ! A97   A(52,25,53)           110.2394         estimate D2E/DX2                !
 ! A98   A(52,25,54)           108.6228         estimate D2E/DX2                !
 ! A99   A(53,25,54)           108.6485         estimate D2E/DX2                !
 ! D1    D(1,2,3,4)             -5.8714         estimate D2E/DX2                !
 ! D2    D(1,2,3,6)            173.5965         estimate D2E/DX2                !
 ! D3    D(10,2,3,4)           177.0129         estimate D2E/DX2                !
 ! D4    D(10,2,3,6)            -3.5192         estimate D2E/DX2                !
 ! D5    D(1,2,10,9)          -169.8246         estimate D2E/DX2                !
 ! D6    D(1,2,10,11)            8.7896         estimate D2E/DX2                !
 ! D7    D(3,2,10,9)             7.2446         estimate D2E/DX2                !
 ! D8    D(3,2,10,11)         -174.1412         estimate D2E/DX2                !
 ! D9    D(2,3,4,5)             -6.0847         estimate D2E/DX2                !
 ! D10   D(6,3,4,5)            174.4404         estimate D2E/DX2                !
 ! D11   D(2,3,6,7)           -179.1964         estimate D2E/DX2                !
 ! D12   D(2,3,6,8)             -1.711          estimate D2E/DX2                !
 ! D13   D(4,3,6,7)              0.3045         estimate D2E/DX2                !
 ! D14   D(4,3,6,8)            177.79           estimate D2E/DX2                !
 ! D15   D(3,4,5,26)          -174.5222         estimate D2E/DX2                !
 ! D16   D(3,4,5,27)           -55.8839         estimate D2E/DX2                !
 ! D17   D(3,4,5,28)            67.0377         estimate D2E/DX2                !
 ! D18   D(3,6,7,29)            66.2843         estimate D2E/DX2                !
 ! D19   D(3,6,7,30)          -173.468          estimate D2E/DX2                !
 ! D20   D(3,6,7,31)           -53.7888         estimate D2E/DX2                !
 ! D21   D(8,6,7,29)          -111.2137         estimate D2E/DX2                !
 ! D22   D(8,6,7,30)             9.0341         estimate D2E/DX2                !
 ! D23   D(8,6,7,31)           128.7132         estimate D2E/DX2                !
 ! D24   D(3,6,8,9)              3.0409         estimate D2E/DX2                !
 ! D25   D(3,6,8,32)          -177.1368         estimate D2E/DX2                !
 ! D26   D(7,6,8,9)           -179.471          estimate D2E/DX2                !
 ! D27   D(7,6,8,32)             0.3513         estimate D2E/DX2                !
 ! D28   D(6,8,9,10)             0.9574         estimate D2E/DX2                !
 ! D29   D(6,8,9,23)          -178.0894         estimate D2E/DX2                !
 ! D30   D(32,8,9,10)         -178.8617         estimate D2E/DX2                !
 ! D31   D(32,8,9,23)            2.0915         estimate D2E/DX2                !
 ! D32   D(8,9,10,2)            -6.0            estimate D2E/DX2                !
 ! D33   D(8,9,10,11)          175.315          estimate D2E/DX2                !
 ! D34   D(23,9,10,2)          173.0366         estimate D2E/DX2                !
 ! D35   D(23,9,10,11)          -5.6483         estimate D2E/DX2                !
 ! D36   D(8,9,23,22)          178.6202         estimate D2E/DX2                !
 ! D37   D(8,9,23,24)           -0.5462         estimate D2E/DX2                !
 ! D38   D(10,9,23,22)          -0.4229         estimate D2E/DX2                !
 ! D39   D(10,9,23,24)        -179.5892         estimate D2E/DX2                !
 ! D40   D(2,10,11,12)           9.2503         estimate D2E/DX2                !
 ! D41   D(2,10,11,21)        -169.4271         estimate D2E/DX2                !
 ! D42   D(9,10,11,12)        -172.1548         estimate D2E/DX2                !
 ! D43   D(9,10,11,21)           9.1678         estimate D2E/DX2                !
 ! D44   D(10,11,12,13)        -83.0794         estimate D2E/DX2                !
 ! D45   D(10,11,12,14)        151.5931         estimate D2E/DX2                !
 ! D46   D(10,11,12,33)         35.5301         estimate D2E/DX2                !
 ! D47   D(21,11,12,13)         95.5957         estimate D2E/DX2                !
 ! D48   D(21,11,12,14)        -29.7318         estimate D2E/DX2                !
 ! D49   D(21,11,12,33)       -145.7949         estimate D2E/DX2                !
 ! D50   D(10,11,21,22)         -6.8988         estimate D2E/DX2                !
 ! D51   D(10,11,21,50)        174.3644         estimate D2E/DX2                !
 ! D52   D(12,11,21,22)        174.3645         estimate D2E/DX2                !
 ! D53   D(12,11,21,50)         -4.3722         estimate D2E/DX2                !
 ! D54   D(11,12,13,34)        -62.5378         estimate D2E/DX2                !
 ! D55   D(14,12,13,34)         64.9702         estimate D2E/DX2                !
 ! D56   D(33,12,13,34)        179.4757         estimate D2E/DX2                !
 ! D57   D(11,12,14,15)       -158.5697         estimate D2E/DX2                !
 ! D58   D(11,12,14,35)         78.2797         estimate D2E/DX2                !
 ! D59   D(11,12,14,36)        -39.6513         estimate D2E/DX2                !
 ! D60   D(13,12,14,15)         76.6846         estimate D2E/DX2                !
 ! D61   D(13,12,14,35)        -46.4661         estimate D2E/DX2                !
 ! D62   D(13,12,14,36)       -164.3971         estimate D2E/DX2                !
 ! D63   D(33,12,14,15)        -40.5602         estimate D2E/DX2                !
 ! D64   D(33,12,14,35)       -163.7108         estimate D2E/DX2                !
 ! D65   D(33,12,14,36)         78.3582         estimate D2E/DX2                !
 ! D66   D(12,14,15,16)        -68.4839         estimate D2E/DX2                !
 ! D67   D(12,14,15,37)         54.5752         estimate D2E/DX2                !
 ! D68   D(12,14,15,38)        170.9452         estimate D2E/DX2                !
 ! D69   D(35,14,15,16)         55.5877         estimate D2E/DX2                !
 ! D70   D(35,14,15,37)        178.6468         estimate D2E/DX2                !
 ! D71   D(35,14,15,38)        -64.9832         estimate D2E/DX2                !
 ! D72   D(36,14,15,16)        171.5655         estimate D2E/DX2                !
 ! D73   D(36,14,15,37)        -65.3754         estimate D2E/DX2                !
 ! D74   D(36,14,15,38)         50.9946         estimate D2E/DX2                !
 ! D75   D(14,15,16,17)       -173.9785         estimate D2E/DX2                !
 ! D76   D(14,15,16,39)         67.2882         estimate D2E/DX2                !
 ! D77   D(14,15,16,40)        -50.81           estimate D2E/DX2                !
 ! D78   D(37,15,16,17)         62.908          estimate D2E/DX2                !
 ! D79   D(37,15,16,39)        -55.8253         estimate D2E/DX2                !
 ! D80   D(37,15,16,40)       -173.9234         estimate D2E/DX2                !
 ! D81   D(38,15,16,17)        -54.6478         estimate D2E/DX2                !
 ! D82   D(38,15,16,39)       -173.3811         estimate D2E/DX2                !
 ! D83   D(38,15,16,40)         68.5208         estimate D2E/DX2                !
 ! D84   D(15,16,17,18)         74.3644         estimate D2E/DX2                !
 ! D85   D(15,16,17,41)       -165.528          estimate D2E/DX2                !
 ! D86   D(15,16,17,42)        -48.6586         estimate D2E/DX2                !
 ! D87   D(39,16,17,18)       -165.9983         estimate D2E/DX2                !
 ! D88   D(39,16,17,41)        -45.8907         estimate D2E/DX2                !
 ! D89   D(39,16,17,42)         70.9787         estimate D2E/DX2                !
 ! D90   D(40,16,17,18)        -49.021          estimate D2E/DX2                !
 ! D91   D(40,16,17,41)         71.0866         estimate D2E/DX2                !
 ! D92   D(40,16,17,42)       -172.0439         estimate D2E/DX2                !
 ! D93   D(16,17,18,19)        169.147          estimate D2E/DX2                !
 ! D94   D(16,17,18,43)         49.554          estimate D2E/DX2                !
 ! D95   D(16,17,18,44)        -68.6526         estimate D2E/DX2                !
 ! D96   D(41,17,18,19)         49.5925         estimate D2E/DX2                !
 ! D97   D(41,17,18,43)        -70.0005         estimate D2E/DX2                !
 ! D98   D(41,17,18,44)        171.7929         estimate D2E/DX2                !
 ! D99   D(42,17,18,19)        -68.313          estimate D2E/DX2                !
 ! D100  D(42,17,18,43)        172.0939         estimate D2E/DX2                !
 ! D101  D(42,17,18,44)         53.8873         estimate D2E/DX2                !
 ! D102  D(17,18,19,20)         69.0413         estimate D2E/DX2                !
 ! D103  D(17,18,19,45)       -171.1094         estimate D2E/DX2                !
 ! D104  D(17,18,19,46)        -53.6908         estimate D2E/DX2                !
 ! D105  D(43,18,19,20)       -170.6432         estimate D2E/DX2                !
 ! D106  D(43,18,19,45)        -50.7939         estimate D2E/DX2                !
 ! D107  D(43,18,19,46)         66.6247         estimate D2E/DX2                !
 ! D108  D(44,18,19,20)        -53.8615         estimate D2E/DX2                !
 ! D109  D(44,18,19,45)         65.9878         estimate D2E/DX2                !
 ! D110  D(44,18,19,46)       -176.5937         estimate D2E/DX2                !
 ! D111  D(18,19,20,47)        -67.1086         estimate D2E/DX2                !
 ! D112  D(18,19,20,48)         54.3819         estimate D2E/DX2                !
 ! D113  D(18,19,20,49)        173.8295         estimate D2E/DX2                !
 ! D114  D(45,19,20,47)        172.9611         estimate D2E/DX2                !
 ! D115  D(45,19,20,48)        -65.5484         estimate D2E/DX2                !
 ! D116  D(45,19,20,49)         53.8993         estimate D2E/DX2                !
 ! D117  D(46,19,20,47)         55.9504         estimate D2E/DX2                !
 ! D118  D(46,19,20,48)        177.4409         estimate D2E/DX2                !
 ! D119  D(46,19,20,49)        -63.1115         estimate D2E/DX2                !
 ! D120  D(11,21,22,23)          0.8144         estimate D2E/DX2                !
 ! D121  D(11,21,22,51)       -178.2735         estimate D2E/DX2                !
 ! D122  D(50,21,22,23)        179.6006         estimate D2E/DX2                !
 ! D123  D(50,21,22,51)          0.5127         estimate D2E/DX2                !
 ! D124  D(21,22,23,9)           2.9376         estimate D2E/DX2                !
 ! D125  D(21,22,23,24)       -177.9136         estimate D2E/DX2                !
 ! D126  D(51,22,23,9)        -178.0006         estimate D2E/DX2                !
 ! D127  D(51,22,23,24)          1.1482         estimate D2E/DX2                !
 ! D128  D(9,23,24,25)         179.5057         estimate D2E/DX2                !
 ! D129  D(22,23,24,25)          0.3549         estimate D2E/DX2                !
 ! D130  D(23,24,25,52)        -61.2085         estimate D2E/DX2                !
 ! D131  D(23,24,25,53)         60.5699         estimate D2E/DX2                !
 ! D132  D(23,24,25,54)        179.7038         estimate D2E/DX2                !
 --------------------------------------------------------------------------------
 Trust Radius=3.00D-01 FncErr=1.00D-07 GrdErr=1.00D-06 EigMax=2.50D+02 EigMin=1.00D-04
 Number of steps in this run=    296 maximum allowed number of steps=    324.
 GradGradGradGradGradGradGradGradGradGradGradGradGradGradGradGradGradGrad

 Stoichiometry    C20H29NO4
 Framework group  C1[X(C20H29NO4)]
 Deg. of freedom   156
 Full point group                 C1      NOp   1
 Largest Abelian subgroup         C1      NOp   1
 Largest concise Abelian subgroup C1      NOp   1
                         Standard orientation:                         
 ---------------------------------------------------------------------
 Center     Atomic      Atomic             Coordinates (Angstroms)
 Number     Number       Type             X           Y           Z
 ---------------------------------------------------------------------
      1          8           0        0.614640    1.922894    0.621308
      2          6           0        1.661422    1.353116    0.219941
      3          6           0        2.800724    2.138855   -0.065729
      4          8           0        2.803969    3.549313   -0.042054
      5          6           0        1.675921    4.398827    0.143814
      6          6           0        4.003809    1.495830   -0.381227
      7          6           0        5.236131    2.310403   -0.671651
      8          7           0        4.077189    0.137954   -0.376652
      9          6           0        2.992301   -0.655043   -0.130699
     10          6           0        1.717594   -0.066225    0.114354
     11          6           0        0.575816   -0.924443    0.268911
     12          6           0       -0.861840   -0.394496    0.360543
     13          8           0       -1.136714    0.001576    1.680364
     14          6           0       -1.947873   -1.376723   -0.157501
     15          6           0       -3.270282   -0.691220   -0.550558
     16          6           0       -4.032305   -0.118087    0.656381
     17          6           0       -5.416315    0.431463    0.273227
     18          6           0       -6.441054   -0.683068   -0.005025
     19          6           0       -7.875808   -0.145989   -0.124829
     20          6           0       -8.088250    0.695053   -1.383272
     21          6           0        0.789835   -2.312769    0.367750
     22          6           0        2.047036   -2.867963    0.178407
     23          6           0        3.150620   -2.056471   -0.101882
     24          8           0        4.421885   -2.609138   -0.338811
     25          6           0        4.718532   -4.001989   -0.328479
     26          1           0        1.995993    5.452326    0.011891
     27          1           0        0.895499    4.174207   -0.614173
     28          1           0        1.274717    4.286045    1.172801
     29          1           0        5.554761    2.845057    0.247708
     30          1           0        6.074703    1.670001   -1.017011
     31          1           0        5.020684    3.052139   -1.469825
     32          1           0        5.005211   -0.300824   -0.573188
     33          1           0       -0.943980    0.488101   -0.305063
     34          1           0       -1.065161   -0.806330    2.253557
     35          1           0       -2.159171   -2.163253    0.599342
     36          1           0       -1.563504   -1.883306   -1.070418
     37          1           0       -3.073411    0.115736   -1.289788
     38          1           0       -3.898954   -1.454916   -1.053830
     39          1           0       -3.448726    0.725793    1.080143
     40          1           0       -4.137687   -0.891115    1.448815
     41          1           0       -5.782922    1.052401    1.119900
     42          1           0       -5.317842    1.093850   -0.613606
     43          1           0       -6.419891   -1.413660    0.832918
     44          1           0       -6.177075   -1.228047   -0.935946
     45          1           0       -8.572651   -1.011221   -0.162116
     46          1           0       -8.136062    0.455116    0.773140
     47          1           0       -7.503881    1.636660   -1.329358
     48          1           0       -7.788736    0.123984   -2.287410
     49          1           0       -9.162993    0.960059   -1.472560
     50          1           0       -0.024289   -2.992649    0.574812
     51          1           0        2.145904   -3.943166    0.238628
     52          1           0        4.504398   -4.430483    0.673134
     53          1           0        4.122756   -4.525431   -1.105549
     54          1           0        5.795659   -4.144275   -0.551694
 ---------------------------------------------------------------------
 Rotational constants (GHZ):           0.3231556           0.0900914           0.0732306
 Standard basis: 6-31G(d) (6D, 7F)
 There are   433 symmetry adapted cartesian basis functions of A   symmetry.
 There are   433 symmetry adapted basis functions of A   symmetry.
   433 basis functions,   816 primitive gaussians,   433 cartesian basis functions
    94 alpha electrons       94 beta electrons
       nuclear repulsion energy      2199.4705964935 Hartrees.
 NAtoms=   54 NActive=   54 NUniq=   54 SFac= 1.00D+00 NAtFMM=   60 NAOKFM=F Big=F
 Integral buffers will be    131072 words long.
 Raffenetti 2 integral format.
 Two-electron integral symmetry is turned on.
 One-electron integrals computed using PRISM.
 NBasis=   433 RedAO= T EigKep=  2.70D-04  NBF=   433
 NBsUse=   433 1.00D-06 EigRej= -1.00D+00 NBFU=   433
 ExpMin= 1.61D-01 ExpMax= 5.48D+03 ExpMxC= 8.25D+02 IAcc=3 IRadAn=         5 AccDes= 0.00D+00
 Harris functional with IExCor=  402 and IRadAn=       5 diagonalized for initial guess.
 HarFok:  IExCor=  402 AccDes= 0.00D+00 IRadAn=         5 IDoV= 1 UseB2=F ITyADJ=14
 ICtDFT=  3500011 ScaDFX=  1.000000  1.000000  1.000000  1.000000
 FoFCou: FMM=F IPFlag=           0 FMFlag=      100000 FMFlg1=           0
         NFxFlg=           0 DoJE=T BraDBF=F KetDBF=T FulRan=T
         wScrn=  0.000000 ICntrl=       500 IOpCl=  0 I1Cent=   200000004 NGrid=           0
         NMat0=    1 NMatS0=      1 NMatT0=    0 NMatD0=    1 NMtDS0=    0 NMtDT0=    0
 Petite list used in FoFCou.
 Requested convergence on RMS density matrix=1.00D-08 within 128 cycles.
 Requested convergence on MAX density matrix=1.00D-06.
 Requested convergence on             energy=1.00D-06.
 No special actions if energy rises.
 Integral accuracy reduced to 1.0D-05 until final iterations.
 EnCoef did     2 forward-backward iterations
 Initial convergence to 1.0D-05 achieved.  Increase integral accuracy.
 SCF Done:  E(RB3LYP) =  -1135.19175259     A.U. after   18 cycles
            NFock= 18  Conv=0.77D-08     -V/T= 2.0100

 **********************************************************************

            Population analysis using the SCF density.

 **********************************************************************

 Orbital symmetries:
       Occupied  (A) (A) (A) (A) (A) (A) (A) (A) (A) (A) (A) (A)
                 (A) (A) (A) (A) (A) (A) (A) (A) (A) (A) (A) (A)
                 (A) (A) (A) (A) (A) (A) (A) (A) (A) (A) (A) (A)
                 (A) (A) (A) (A) (A) (A) (A) (A) (A) (A) (A) (A)
                 (A) (A) (A) (A) (A) (A) (A) (A) (A) (A) (A) (A)
                 (A) (A) (A) (A) (A) (A) (A) (A) (A) (A) (A) (A)
                 (A) (A) (A) (A) (A) (A) (A) (A) (A) (A) (A) (A)
                 (A) (A) (A) (A) (A) (A) (A) (A) (A) (A)
       Virtual   (A) (A) (A) (A) (A) (A) (A) (A) (A) (A) (A) (A)
                 (A) (A) (A) (A) (A) (A) (A) (A) (A) (A) (A) (A)
                 (A) (A) (A) (A) (A) (A) (A) (A) (A) (A) (A) (A)
                 (A) (A) (A) (A) (A) (A) (A) (A) (A) (A) (A) (A)
                 (A) (A) (A) (A) (A) (A) (A) (A) (A) (A) (A) (A)
                 (A) (A) (A) (A) (A) (A) (A) (A) (A) (A) (A) (A)
                 (A) (A) (A) (A) (A) (A) (A) (A) (A) (A) (A) (A)
                 (A) (A) (A) (A) (A) (A) (A) (A) (A) (A) (A) (A)
                 (A) (A) (A) (A) (A) (A) (A) (A) (A) (A) (A) (A)
                 (A) (A) (A) (A) (A) (A) (A) (A) (A) (A) (A) (A)
                 (A) (A) (A) (A) (A) (A) (A) (A) (A) (A) (A) (A)
                 (A) (A) (A) (A) (A) (A) (A) (A) (A) (A) (A) (A)
                 (A) (A) (A) (A) (A) (A) (A) (A) (A) (A) (A) (A)
                 (A) (A) (A) (A) (A) (A) (A) (A) (A) (A) (A) (A)
                 (A) (A) (A) (A) (A) (A) (A) (A) (A) (A) (A) (A)
                 (A) (A) (A) (A) (A) (A) (A) (A) (A) (A) (A) (A)
                 (A) (A) (A) (A) (A) (A) (A) (A) (A) (A) (A) (A)
                 (A) (A) (A) (A) (A) (A) (A) (A) (A) (A) (A) (A)
                 (A) (A) (A) (A) (A) (A) (A) (A) (A) (A) (A) (A)
                 (A) (A) (A) (A) (A) (A) (A) (A) (A) (A) (A) (A)
                 (A) (A) (A) (A) (A) (A) (A) (A) (A) (A) (A) (A)
                 (A) (A) (A) (A) (A) (A) (A) (A) (A) (A) (A) (A)
                 (A) (A) (A) (A) (A) (A) (A) (A) (A) (A) (A) (A)
                 (A) (A) (A) (A) (A) (A) (A) (A) (A) (A) (A) (A)
                 (A) (A) (A) (A) (A) (A) (A) (A) (A) (A) (A) (A)
                 (A) (A) (A) (A) (A) (A) (A) (A) (A) (A) (A) (A)
                 (A) (A) (A) (A) (A) (A) (A) (A) (A) (A) (A) (A)
                 (A) (A) (A) (A) (A) (A) (A) (A) (A) (A) (A) (A)
                 (A) (A) (A)
 The electronic state is 1-A.
 Alpha  occ. eigenvalues --  -19.18836 -19.15548 -19.12344 -19.07358 -14.39902
 Alpha  occ. eigenvalues --  -10.26135 -10.26132 -10.24554 -10.24431 -10.23319
 Alpha  occ. eigenvalues --  -10.23262 -10.21939 -10.21738 -10.20265 -10.19725
 Alpha  occ. eigenvalues --  -10.19606 -10.19558 -10.18846 -10.17136 -10.17038
 Alpha  occ. eigenvalues --  -10.16891 -10.16722 -10.16666 -10.16401 -10.15863
 Alpha  occ. eigenvalues --   -1.06102  -1.02800  -0.99956  -0.98769  -0.96985
 Alpha  occ. eigenvalues --   -0.85369  -0.79910  -0.79297  -0.77310  -0.77107
 Alpha  occ. eigenvalues --   -0.75599  -0.72808  -0.71682  -0.70153  -0.67986
 Alpha  occ. eigenvalues --   -0.66394  -0.63589  -0.62822  -0.61394  -0.59647
 Alpha  occ. eigenvalues --   -0.58707  -0.56438  -0.54821  -0.54155  -0.53357
 Alpha  occ. eigenvalues --   -0.52766  -0.49475  -0.47733  -0.47371  -0.47065
 Alpha  occ. eigenvalues --   -0.46066  -0.45706  -0.45603  -0.44870  -0.43957
 Alpha  occ. eigenvalues --   -0.43619  -0.42832  -0.42273  -0.42072  -0.41793
 Alpha  occ. eigenvalues --   -0.41089  -0.40776  -0.40425  -0.40250  -0.39509
 Alpha  occ. eigenvalues --   -0.38056  -0.37384  -0.36747  -0.36404  -0.35881
 Alpha  occ. eigenvalues --   -0.35301  -0.34889  -0.34243  -0.33458  -0.33101
 Alpha  occ. eigenvalues --   -0.32496  -0.31765  -0.31730  -0.30824  -0.30429
 Alpha  occ. eigenvalues --   -0.30373  -0.29474  -0.29204  -0.28203  -0.24445
 Alpha  occ. eigenvalues --   -0.24151  -0.22178  -0.20433  -0.17889
 Alpha virt. eigenvalues --   -0.03495  -0.00895   0.02443   0.05856   0.08108
 Alpha virt. eigenvalues --    0.08843   0.09261   0.09900   0.10043   0.10553
 Alpha virt. eigenvalues --    0.11345   0.12262   0.12694   0.12781   0.12888
 Alpha virt. eigenvalues --    0.13678   0.14018   0.14501   0.15086   0.15409
 Alpha virt. eigenvalues --    0.15458   0.16121   0.16743   0.17006   0.17379
 Alpha virt. eigenvalues --    0.18062   0.18492   0.18749   0.18862   0.19261
 Alpha virt. eigenvalues --    0.19822   0.20626   0.21045   0.21375   0.21743
 Alpha virt. eigenvalues --    0.22417   0.22851   0.23917   0.24389   0.25000
 Alpha virt. eigenvalues --    0.25957   0.26206   0.27287   0.27649   0.27829
 Alpha virt. eigenvalues --    0.28472   0.29156   0.30317   0.30648   0.31499
 Alpha virt. eigenvalues --    0.32894   0.34913   0.36288   0.37378   0.38184
 Alpha virt. eigenvalues --    0.42025   0.43670   0.47024   0.48449   0.49608
 Alpha virt. eigenvalues --    0.50534   0.51357   0.51533   0.51904   0.52714
 Alpha virt. eigenvalues --    0.52911   0.53183   0.53585   0.54552   0.54795
 Alpha virt. eigenvalues --    0.55149   0.55684   0.56189   0.56607   0.57501
 Alpha virt. eigenvalues --    0.57652   0.58296   0.58912   0.59522   0.59750
 Alpha virt. eigenvalues --    0.60405   0.60995   0.61330   0.62367   0.62822
 Alpha virt. eigenvalues --    0.64123   0.65216   0.65460   0.67030   0.67277
 Alpha virt. eigenvalues --    0.68532   0.68773   0.68979   0.69687   0.70296
 Alpha virt. eigenvalues --    0.70757   0.71166   0.72161   0.72406   0.73846
 Alpha virt. eigenvalues --    0.75076   0.76060   0.76896   0.77501   0.79384
 Alpha virt. eigenvalues --    0.79970   0.80525   0.81312   0.81990   0.82196
 Alpha virt. eigenvalues --    0.82878   0.83760   0.84720   0.84902   0.85362
 Alpha virt. eigenvalues --    0.85897   0.85917   0.86285   0.86561   0.87343
 Alpha virt. eigenvalues --    0.87930   0.88187   0.88612   0.88909   0.89348
 Alpha virt. eigenvalues --    0.89792   0.89977   0.90403   0.91010   0.91549
 Alpha virt. eigenvalues --    0.92288   0.92769   0.94033   0.94685   0.95352
 Alpha virt. eigenvalues --    0.95895   0.96636   0.96759   0.97484   0.98668
 Alpha virt. eigenvalues --    0.99269   1.00123   1.00241   1.00981   1.01510
 Alpha virt. eigenvalues --    1.02272   1.03225   1.03956   1.04641   1.05186
 Alpha virt. eigenvalues --    1.06199   1.07072   1.08529   1.11159   1.11848
 Alpha virt. eigenvalues --    1.12015   1.13566   1.14877   1.16550   1.17137
 Alpha virt. eigenvalues --    1.19063   1.19383   1.22104   1.22340   1.23897
 Alpha virt. eigenvalues --    1.25598   1.27402   1.29708   1.31360   1.32155
 Alpha virt. eigenvalues --    1.32959   1.34402   1.35117   1.35619   1.36691
 Alpha virt. eigenvalues --    1.38632   1.38875   1.40688   1.41831   1.42749
 Alpha virt. eigenvalues --    1.44118   1.44286   1.47044   1.47449   1.48857
 Alpha virt. eigenvalues --    1.50547   1.51699   1.52084   1.53749   1.55034
 Alpha virt. eigenvalues --    1.55499   1.58218   1.60190   1.60493   1.63267
 Alpha virt. eigenvalues --    1.64077   1.65385   1.69173   1.69483   1.70568
 Alpha virt. eigenvalues --    1.73194   1.73779   1.75301   1.76235   1.77351
 Alpha virt. eigenvalues --    1.78359   1.78901   1.80111   1.81356   1.81794
 Alpha virt. eigenvalues --    1.81941   1.82967   1.84049   1.84458   1.85760
 Alpha virt. eigenvalues --    1.86357   1.86732   1.86996   1.88121   1.89329
 Alpha virt. eigenvalues --    1.91269   1.92037   1.92656   1.92808   1.94604
 Alpha virt. eigenvalues --    1.95028   1.96448   1.98162   1.98349   1.99015
 Alpha virt. eigenvalues --    1.99992   2.01083   2.02289   2.02449   2.03326
 Alpha virt. eigenvalues --    2.03820   2.04812   2.05210   2.06069   2.07161
 Alpha virt. eigenvalues --    2.09663   2.09839   2.11408   2.12406   2.12574
 Alpha virt. eigenvalues --    2.14139   2.15158   2.15530   2.16701   2.18383
 Alpha virt. eigenvalues --    2.18979   2.21164   2.21392   2.22458   2.23365
 Alpha virt. eigenvalues --    2.23850   2.23940   2.25419   2.26542   2.27328
 Alpha virt. eigenvalues --    2.28828   2.30295   2.31351   2.32299   2.33799
 Alpha virt. eigenvalues --    2.34144   2.34808   2.35763   2.35917   2.37203
 Alpha virt. eigenvalues --    2.37693   2.39717   2.40256   2.41418   2.42414
 Alpha virt. eigenvalues --    2.45578   2.47489   2.47712   2.49723   2.50713
 Alpha virt. eigenvalues --    2.51773   2.54275   2.55764   2.56501   2.57700
 Alpha virt. eigenvalues --    2.60339   2.62379   2.63287   2.64023   2.65251
 Alpha virt. eigenvalues --    2.67802   2.68766   2.71012   2.71834   2.72639
 Alpha virt. eigenvalues --    2.73345   2.74160   2.76775   2.77330   2.80379
 Alpha virt. eigenvalues --    2.82264   2.85257   2.88479   2.91820   2.94844
 Alpha virt. eigenvalues --    2.95171   2.97527   3.00471   3.04405   3.11094
 Alpha virt. eigenvalues --    3.14565   3.26218   3.45392   3.49835   3.87756
 Alpha virt. eigenvalues --    3.99517   4.05539   4.10175   4.10958   4.12190
 Alpha virt. eigenvalues --    4.16152   4.19062   4.19934   4.21507   4.23554
 Alpha virt. eigenvalues --    4.28195   4.30036   4.35014   4.37855   4.38810
 Alpha virt. eigenvalues --    4.42767   4.44621   4.51551   4.52501   4.57814
 Alpha virt. eigenvalues --    4.61136   4.62858   4.88303   5.04595
          Condensed to atoms (all electrons):
 Mulliken charges:
               1
     1  O   -0.564942
     2  C    0.369388
     3  C    0.263149
     4  O   -0.556164
     5  C   -0.175476
     6  C    0.311024
     7  C   -0.505071
     8  N   -0.787440
     9  C    0.298346
    10  C    0.025987
    11  C    0.074154
    12  C    0.090039
    13  O   -0.589066
    14  C   -0.274959
    15  C   -0.261157
    16  C   -0.249165
    17  C   -0.254092
    18  C   -0.244005
    19  C   -0.242999
    20  C   -0.435059
    21  C   -0.199551
    22  C   -0.197799
    23  C    0.347750
    24  O   -0.562366
    25  C   -0.201344
    26  H    0.135748
    27  H    0.153456
    28  H    0.168351
    29  H    0.187682
    30  H    0.136168
    31  H    0.190123
    32  H    0.349864
    33  H    0.156947
    34  H    0.371151
    35  H    0.109321
    36  H    0.124615
    37  H    0.128962
    38  H    0.124900
    39  H    0.166197
    40  H    0.110882
    41  H    0.122316
    42  H    0.127718
    43  H    0.119946
    44  H    0.125724
    45  H    0.121340
    46  H    0.126838
    47  H    0.145714
    48  H    0.135934
    49  H    0.135291
    50  H    0.131122
    51  H    0.133210
    52  H    0.154776
    53  H    0.154864
    54  H    0.171656
 Sum of Mulliken charges =  -0.00000
 Mulliken charges with hydrogens summed into heavy atoms:
               1
     1  O   -0.564942
     2  C    0.369388
     3  C    0.263149
     4  O   -0.556164
     5  C    0.282080
     6  C    0.311024
     7  C    0.008902
     8  N   -0.437576
     9  C    0.298346
    10  C    0.025987
    11  C    0.074154
    12  C    0.246987
    13  O   -0.217915
    14  C   -0.041023
    15  C   -0.007295
    16  C    0.027914
    17  C   -0.004058
    18  C    0.001665
    19  C    0.005179
    20  C   -0.018120
    21  C   -0.068429
    22  C   -0.064588
    23  C    0.347750
    24  O   -0.562366
    25  C    0.279953
 Electronic spatial extent (au):  <R**2>=          14599.2545
 Charge=             -0.0000 electrons
 Dipole moment (field-independent basis, Debye):
    X=              4.8872    Y=             -4.5294    Z=             -1.4728  Tot=              6.8242
 Quadrupole moment (field-independent basis, Debye-Ang):
   XX=           -127.6664   YY=           -135.1285   ZZ=           -151.4333
   XY=             -8.2247   XZ=             -3.8184   YZ=             -4.6496
 Traceless Quadrupole moment (field-independent basis, Debye-Ang):
   XX=             10.4097   YY=              2.9476   ZZ=            -13.3572
   XY=             -8.2247   XZ=             -3.8184   YZ=             -4.6496
 Octapole moment (field-independent basis, Debye-Ang**2):
  XXX=            230.9076  YYY=            -32.3216  ZZZ=             13.9733  XYY=             66.7130
  XXY=            -42.9343  XXZ=            -11.9320  XZZ=             11.5212  YZZ=             -0.9987
  YYZ=              2.3798  XYZ=              3.0531
 Hexadecapole moment (field-independent basis, Debye-Ang**3):
 XXXX=         -14678.6276 YYYY=          -3457.4564 ZZZZ=           -510.5532 XXXY=           -212.3480
 XXXZ=           -192.2596 YYYX=           -281.7474 YYYZ=             18.9706 ZZZX=            -37.6804
 ZZZY=             -4.4097 XXYY=          -2945.9835 XXZZ=          -2653.3260 YYZZ=           -732.7225
 XXYZ=             33.4477 YYXZ=            -33.3560 ZZXY=             20.5515
 N-N= 2.199470596493D+03 E-N=-7.040386709022D+03  KE= 1.123987861043D+03
 Calling FoFJK, ICntrl=      2127 FMM=F ISym2X=0 I1Cent= 0 IOpClX= 0 NMat=1 NMatS=1 NMatT=0.
 ***** Axes restored to original set *****
 -------------------------------------------------------------------
 Center     Atomic                   Forces (Hartrees/Bohr)
 Number     Number              X              Y              Z
 -------------------------------------------------------------------
      1        8          -0.003595942    0.003450553   -0.006335699
      2        6           0.044960243   -0.043348111    0.016796749
      3        6          -0.034732017   -0.013120788   -0.012544935
      4        8          -0.020731746    0.027806812   -0.001802165
      5        6           0.019839818    0.003874698    0.003436160
      6        6           0.009836527   -0.039394386    0.001787494
      7        6          -0.006172763    0.004027441   -0.002591929
      8        7          -0.028824126    0.011195416   -0.005174228
      9        6           0.004146367    0.011228660    0.002324538
     10        6          -0.003779576    0.043245583   -0.006472775
     11        6           0.000143285    0.011410560    0.002641875
     12        6          -0.000351602    0.005903533   -0.016627343
     13        8           0.006338407    0.003238374    0.024013906
     14        6          -0.006268984    0.007467537   -0.010438394
     15        6           0.001513560    0.004742766    0.005301378
     16        6          -0.004293205   -0.013509579   -0.002264492
     17        6           0.000939267    0.002360148    0.004212260
     18        6           0.003553996   -0.001625949    0.004549142
     19        6           0.005294478    0.007188765   -0.000936866
     20        6           0.005328200   -0.006565690   -0.002375343
     21        6           0.000710657   -0.021818816   -0.004841830
     22        6          -0.016709932   -0.002914562   -0.001093012
     23        6           0.000859074    0.044265116    0.003690549
     24        8          -0.005886631   -0.029799521   -0.003618938
     25        6           0.014945023    0.001157650    0.002765951
     26        1          -0.005619737    0.012287761   -0.000622373
     27        1          -0.004255447   -0.003266228    0.011403703
     28        1           0.000042595    0.000119253   -0.013069798
     29        1           0.001442119    0.002029842   -0.009936713
     30        1           0.005354983   -0.005909304    0.002847897
     31        1          -0.001634644    0.004658025    0.010430176
     32        1           0.025364081   -0.010066571    0.004649397
     33        1          -0.002177808    0.001969296    0.015007698
     34        1          -0.001484407   -0.014554782   -0.013550279
     35        1          -0.003071240   -0.003402266   -0.005642401
     36        1           0.001540133   -0.002079058    0.008498800
     37        1           0.002715289    0.005795980    0.005202926
     38        1          -0.004497880   -0.005793815    0.001334126
     39        1           0.003467412    0.010823854   -0.000050762
     40        1          -0.002466367   -0.005803024   -0.005653818
     41        1          -0.000475267    0.003577086   -0.007672868
     42        1           0.001802363    0.002745345    0.008008681
     43        1          -0.003415183   -0.003225139   -0.006852658
     44        1           0.002005502   -0.002757314    0.007240056
     45        1          -0.004179807   -0.006461132    0.002325486
     46        1          -0.001141329    0.006485827   -0.005156384
     47        1           0.005690923    0.007029761   -0.003909960
     48        1           0.001703489   -0.007255951    0.005450400
     49        1          -0.009202386    0.001356909   -0.002205565
     50        1           0.004826607   -0.001302177   -0.002423282
     51        1          -0.003736535    0.002689749   -0.000019869
     52        1          -0.001122351    0.000408654   -0.008068551
     53        1          -0.003864195   -0.000904515    0.007138662
     54        1           0.009326707   -0.009662278    0.000895220
 -------------------------------------------------------------------
 Cartesian Forces:  Max     0.044960243 RMS     0.011546960

 GradGradGradGradGradGradGradGradGradGradGradGradGradGradGradGradGradGrad
 Berny optimization.
 FormGI is forming the generalized inverse of G from B-inverse, IUseBI=4.
 Internal  Forces:  Max     0.039906675 RMS     0.007417850
 Search for a local minimum.
 Step number   1 out of a maximum of  296
 All quantities printed in internal units (Hartrees-Bohrs-Radians)
 Mixed Optimization -- RFO/linear search
 Second derivative matrix not updated -- first step.
 ITU=  0
     Eigenvalues ---    0.00230   0.00230   0.00245   0.00261   0.00268
     Eigenvalues ---    0.00281   0.00304   0.00390   0.00693   0.01201
     Eigenvalues ---    0.01370   0.01373   0.01551   0.01561   0.01608
     Eigenvalues ---    0.01624   0.01763   0.01780   0.01838   0.01885
     Eigenvalues ---    0.01916   0.01951   0.01993   0.01997   0.02100
     Eigenvalues ---    0.02131   0.02150   0.02183   0.02189   0.03341
     Eigenvalues ---    0.03423   0.03477   0.03489   0.03502   0.03528
     Eigenvalues ---    0.04396   0.04754   0.04772   0.04796   0.04800
     Eigenvalues ---    0.04818   0.04849   0.05347   0.05587   0.05781
     Eigenvalues ---    0.07244   0.07401   0.08059   0.08219   0.08224
     Eigenvalues ---    0.08244   0.08297   0.08306   0.08426   0.10159
     Eigenvalues ---    0.10221   0.10417   0.10457   0.12131   0.12144
     Eigenvalues ---    0.12154   0.12185   0.12201   0.12291   0.15996
     Eigenvalues ---    0.15998   0.16000   0.16000   0.16000   0.16000
     Eigenvalues ---    0.16000   0.16000   0.16000   0.16000   0.16000
     Eigenvalues ---    0.16000   0.16000   0.16000   0.16000   0.16000
     Eigenvalues ---    0.18469   0.20413   0.21946   0.21949   0.21951
     Eigenvalues ---    0.21954   0.21957   0.21976   0.22423   0.23477
     Eigenvalues ---    0.24442   0.24895   0.24935   0.24959   0.24976
     Eigenvalues ---    0.24984   0.24995   0.24997   0.24999   0.25000
     Eigenvalues ---    0.25000   0.27376   0.28474   0.28574   0.28685
     Eigenvalues ---    0.28730   0.28817   0.28970   0.29567   0.31808
     Eigenvalues ---    0.32331   0.32376   0.32385   0.32396   0.32398
     Eigenvalues ---    0.32411   0.32433   0.32443   0.32466   0.32507
     Eigenvalues ---    0.32525   0.32543   0.32543   0.32544   0.32568
     Eigenvalues ---    0.32572   0.32576   0.32577   0.32581   0.32592
     Eigenvalues ---    0.32617   0.32652   0.32687   0.32714   0.32760
     Eigenvalues ---    0.35824   0.35910   0.37369   0.38852   0.40202
     Eigenvalues ---    0.40553   0.41815   0.41845   0.41943   0.42541
     Eigenvalues ---    0.43898   0.44097   0.44592   0.44693   0.44783
     Eigenvalues ---    0.44912   0.46962   0.48910   0.50049   0.51960
     Eigenvalues ---    0.80500
 RFO step:  Lambda=-4.64209328D-02 EMin= 2.30000000D-03
 Linear search not attempted -- first point.
 Maximum step size (   0.300) exceeded in Quadratic search.
    -- Step size scaled by   0.839
 Iteration  1 RMS(Cart)=  0.09528973 RMS(Int)=  0.00178675
 Iteration  2 RMS(Cart)=  0.00330565 RMS(Int)=  0.00012722
 Iteration  3 RMS(Cart)=  0.00000553 RMS(Int)=  0.00012721
 Iteration  4 RMS(Cart)=  0.00000000 RMS(Int)=  0.00012721
 Variable       Old X    -DE/DX   Delta X   Delta X   Delta X     New X
                                 (Linear)    (Quad)   (Total)
    R1        2.37647  -0.00641   0.00000  -0.00632  -0.00632   2.37015
    R2        2.67047   0.03321   0.00000   0.05917   0.05936   2.72983
    R3        2.69167   0.03991   0.00000   0.07475   0.07494   2.76661
    R4        2.66576  -0.03909   0.00000  -0.06757  -0.06757   2.59819
    R5        2.64591  -0.02492   0.00000  -0.04288  -0.04288   2.60303
    R6        2.69159  -0.00181   0.00000  -0.00328  -0.00328   2.68831
    R7        2.09556  -0.00865   0.00000  -0.01944  -0.01944   2.07612
    R8        2.09926  -0.01146   0.00000  -0.02587  -0.02587   2.07339
    R9        2.09794  -0.01193   0.00000  -0.02690  -0.02690   2.07104
   R10        2.84496  -0.00129   0.00000  -0.00296  -0.00296   2.84200
   R11        2.56977   0.00628   0.00000   0.00701   0.00682   2.57660
   R12        2.09802  -0.00953   0.00000  -0.02149  -0.02149   2.07653
   R13        2.09802  -0.00842   0.00000  -0.01898  -0.01898   2.07903
   R14        2.09893  -0.01106   0.00000  -0.02498  -0.02498   2.07396
   R15        2.58162   0.00672   0.00000   0.00883   0.00863   2.59025
   R16        1.97508  -0.02716   0.00000  -0.05042  -0.05042   1.92466
   R17        2.69353  -0.00241   0.00000  -0.00318  -0.00321   2.69032
   R18        2.66572  -0.00640   0.00000  -0.01150  -0.01144   2.65428
   R19        2.71495  -0.00493   0.00000  -0.00885  -0.00893   2.70602
   R20        2.90065   0.00009   0.00000   0.00021   0.00021   2.90086
   R21        2.66111  -0.01187   0.00000  -0.01992  -0.01997   2.64114
   R22        2.65529   0.01453   0.00000   0.02467   0.02467   2.67996
   R23        2.93523  -0.00167   0.00000  -0.00438  -0.00438   2.93085
   R24        2.09475  -0.01105   0.00000  -0.02480  -0.02480   2.06995
   R25        1.87681  -0.01987   0.00000  -0.03114  -0.03114   1.84568
   R26        2.91114   0.00183   0.00000   0.00464   0.00464   2.91578
   R27        2.10099  -0.00709   0.00000  -0.01606  -0.01606   2.08493
   R28        2.10243  -0.00824   0.00000  -0.01870  -0.01870   2.08373
   R29        2.90665   0.00093   0.00000   0.00233   0.00233   2.90899
   R30        2.10125  -0.00822   0.00000  -0.01862  -0.01862   2.08263
   R31        2.09729  -0.00712   0.00000  -0.01604  -0.01604   2.08125
   R32        2.90569   0.00453   0.00000   0.01138   0.01138   2.91707
   R33        2.09774  -0.00979   0.00000  -0.02207  -0.02207   2.07567
   R34        2.10145  -0.00841   0.00000  -0.01905  -0.01905   2.08240
   R35        2.90901   0.00075   0.00000   0.00189   0.00189   2.91090
   R36        2.10161  -0.00791   0.00000  -0.01793  -0.01793   2.08368
   R37        2.10000  -0.00840   0.00000  -0.01900  -0.01900   2.08100
   R38        2.90387   0.00319   0.00000   0.00799   0.00799   2.91186
   R39        2.10122  -0.00767   0.00000  -0.01737  -0.01737   2.08385
   R40        2.09862  -0.00776   0.00000  -0.01751  -0.01751   2.08111
   R41        2.88835   0.00554   0.00000   0.01360   0.01360   2.90195
   R42        2.10058  -0.00755   0.00000  -0.01708  -0.01708   2.08350
   R43        2.10041  -0.00814   0.00000  -0.01841  -0.01841   2.08199
   R44        2.09667  -0.00915   0.00000  -0.02058  -0.02058   2.07609
   R45        2.09861  -0.00889   0.00000  -0.02005  -0.02005   2.07856
   R46        2.09859  -0.00871   0.00000  -0.01965  -0.01965   2.07895
   R47        2.62165   0.01395   0.00000   0.02237   0.02238   2.64403
   R48        2.04222   0.00288   0.00000   0.00595   0.00595   2.04818
   R49        2.64223  -0.01567   0.00000  -0.02638  -0.02631   2.61591
   R50        2.04358   0.00254   0.00000   0.00526   0.00526   2.04884
   R51        2.65753  -0.03111   0.00000  -0.05302  -0.05302   2.60451
   R52        2.69121  -0.01039   0.00000  -0.01876  -0.01876   2.67246
   R53        2.09810  -0.00754   0.00000  -0.01699  -0.01699   2.08111
   R54        2.09817  -0.00756   0.00000  -0.01705  -0.01705   2.08113
   R55        2.09604  -0.01152   0.00000  -0.02590  -0.02590   2.07014
    A1        2.07565   0.01032   0.00000   0.02643   0.02611   2.10176
    A2        2.10361   0.01006   0.00000   0.02565   0.02534   2.12895
    A3        2.10282  -0.02030   0.00000  -0.05076  -0.05052   2.05230
    A4        2.15844   0.00407   0.00000   0.01148   0.01140   2.16983
    A5        2.07480   0.01506   0.00000   0.04270   0.04285   2.11765
    A6        2.04991  -0.01913   0.00000  -0.05421  -0.05428   1.99562
    A7        2.21020  -0.01930   0.00000  -0.05462  -0.05462   2.15558
    A8        1.89917  -0.01738   0.00000  -0.07179  -0.07150   1.82767
    A9        1.92490   0.00747   0.00000   0.03068   0.03061   1.95551
   A10        1.92471   0.00654   0.00000   0.02746   0.02739   1.95210
   A11        1.88988   0.00367   0.00000   0.01319   0.01348   1.90336
   A12        1.88713   0.00507   0.00000   0.02006   0.02034   1.90747
   A13        1.93692  -0.00582   0.00000  -0.02154  -0.02188   1.91504
   A14        2.09246   0.00837   0.00000   0.02695   0.02705   2.11952
   A15        2.09924  -0.00281   0.00000  -0.01406  -0.01430   2.08494
   A16        2.09065  -0.00553   0.00000  -0.01253  -0.01243   2.07822
   A17        1.91319   0.00365   0.00000   0.01366   0.01364   1.92683
   A18        1.94569   0.00021   0.00000   0.00286   0.00282   1.94852
   A19        1.91897   0.00105   0.00000   0.00346   0.00345   1.92242
   A20        1.89505  -0.00135   0.00000  -0.00390  -0.00394   1.89111
   A21        1.90620  -0.00410   0.00000  -0.02067  -0.02067   1.88553
   A22        1.88407   0.00034   0.00000   0.00371   0.00368   1.88775
   A23        2.13812   0.00675   0.00000   0.01447   0.01403   2.15215
   A24        2.05610   0.00189   0.00000   0.01414   0.01435   2.07046
   A25        2.08896  -0.00864   0.00000  -0.02863  -0.02841   2.06055
   A26        2.09596   0.00252   0.00000   0.00689   0.00666   2.10262
   A27        2.08430  -0.00721   0.00000  -0.02067  -0.02048   2.06382
   A28        2.10280   0.00470   0.00000   0.01386   0.01389   2.11669
   A29        2.04840  -0.00113   0.00000   0.00244   0.00270   2.05110
   A30        2.16028   0.00340   0.00000   0.00552   0.00557   2.16585
   A31        2.07425  -0.00227   0.00000  -0.00782  -0.00815   2.06611
   A32        2.14663   0.00199   0.00000   0.00431   0.00447   2.15110
   A33        2.06655  -0.00191   0.00000  -0.00273  -0.00304   2.06351
   A34        2.06978  -0.00008   0.00000  -0.00156  -0.00141   2.06837
   A35        1.91412   0.00529   0.00000   0.01849   0.01856   1.93268
   A36        2.00054  -0.00783   0.00000  -0.02074  -0.02071   1.97983
   A37        1.88436   0.00060   0.00000   0.00120   0.00138   1.88574
   A38        1.93344   0.00231   0.00000   0.00917   0.00923   1.94267
   A39        1.90189  -0.00639   0.00000  -0.03887  -0.03888   1.86301
   A40        1.82495   0.00570   0.00000   0.02842   0.02851   1.85345
   A41        1.87414  -0.00306   0.00000  -0.01242  -0.01242   1.86171
   A42        1.98658   0.00069   0.00000   0.00411   0.00409   1.99067
   A43        1.93179  -0.00032   0.00000  -0.00421  -0.00422   1.92757
   A44        1.89658  -0.00093   0.00000  -0.00239  -0.00249   1.89409
   A45        1.90217  -0.00046   0.00000  -0.00264  -0.00261   1.89956
   A46        1.86484   0.00205   0.00000   0.01491   0.01490   1.87974
   A47        1.87772  -0.00106   0.00000  -0.00998  -0.00999   1.86772
   A48        1.97238   0.00996   0.00000   0.03428   0.03423   2.00661
   A49        1.91832  -0.00368   0.00000  -0.01346  -0.01340   1.90493
   A50        1.87104  -0.00186   0.00000  -0.00012  -0.00028   1.87076
   A51        1.91661  -0.00295   0.00000  -0.01033  -0.01026   1.90635
   A52        1.90879  -0.00256   0.00000  -0.00450  -0.00473   1.90405
   A53        1.87361   0.00070   0.00000  -0.00760  -0.00769   1.86591
   A54        1.96445   0.00452   0.00000   0.01747   0.01735   1.98180
   A55        1.89902  -0.00190   0.00000  -0.00317  -0.00358   1.89544
   A56        1.92526  -0.00187   0.00000  -0.01180  -0.01179   1.91347
   A57        1.87194   0.00197   0.00000   0.01981   0.01970   1.89165
   A58        1.91848  -0.00191   0.00000  -0.00876  -0.00863   1.90984
   A59        1.88204  -0.00093   0.00000  -0.01394  -0.01395   1.86808
   A60        1.96650   0.00741   0.00000   0.02645   0.02639   1.99289
   A61        1.88237   0.00006   0.00000   0.00812   0.00809   1.89046
   A62        1.90936  -0.00290   0.00000  -0.00978  -0.00973   1.89963
   A63        1.89908  -0.00303   0.00000  -0.00947  -0.00972   1.88935
   A64        1.92442  -0.00175   0.00000  -0.00608  -0.00608   1.91833
   A65        1.87964  -0.00004   0.00000  -0.01052  -0.01058   1.86907
   A66        1.96338   0.00692   0.00000   0.02478   0.02473   1.98811
   A67        1.90374  -0.00318   0.00000  -0.01080  -0.01105   1.89269
   A68        1.92685  -0.00142   0.00000  -0.00477  -0.00477   1.92208
   A69        1.88197   0.00038   0.00000   0.00941   0.00942   1.89138
   A70        1.90509  -0.00286   0.00000  -0.00968  -0.00965   1.89544
   A71        1.88047  -0.00006   0.00000  -0.01004  -0.01009   1.87038
   A72        1.96740   0.00575   0.00000   0.02085   0.02078   1.98818
   A73        1.89218  -0.00059   0.00000   0.00305   0.00288   1.89507
   A74        1.92267  -0.00297   0.00000  -0.01372  -0.01371   1.90895
   A75        1.88974  -0.00110   0.00000   0.00180   0.00165   1.89139
   A76        1.91245  -0.00103   0.00000  -0.00287  -0.00278   1.90967
   A77        1.87682  -0.00029   0.00000  -0.01017  -0.01020   1.86663
   A78        1.93240   0.00347   0.00000   0.01372   0.01361   1.94601
   A79        1.92824   0.00157   0.00000   0.00511   0.00508   1.93331
   A80        1.90924   0.00493   0.00000   0.02167   0.02152   1.93076
   A81        1.91126  -0.00363   0.00000  -0.01782  -0.01782   1.89344
   A82        1.88716  -0.00347   0.00000  -0.01161  -0.01183   1.87532
   A83        1.89469  -0.00309   0.00000  -0.01186  -0.01194   1.88275
   A84        2.12080   0.00442   0.00000   0.01638   0.01615   2.13696
   A85        2.11670  -0.00604   0.00000  -0.02366  -0.02359   2.09311
   A86        2.04548   0.00163   0.00000   0.00753   0.00760   2.05309
   A87        2.10639  -0.00545   0.00000  -0.01629  -0.01638   2.09002
   A88        2.06365   0.00665   0.00000   0.02411   0.02415   2.08780
   A89        2.11303  -0.00120   0.00000  -0.00780  -0.00776   2.10527
   A90        2.08530   0.00096   0.00000   0.00271   0.00265   2.08795
   A91        2.08110  -0.01987   0.00000  -0.05618  -0.05619   2.02491
   A92        2.11669   0.01893   0.00000   0.05363   0.05363   2.17032
   A93        2.17905  -0.03240   0.00000  -0.09170  -0.09170   2.08736
   A94        1.92179   0.00522   0.00000   0.02197   0.02189   1.94368
   A95        1.92222   0.00512   0.00000   0.02155   0.02146   1.94368
   A96        1.90317  -0.01218   0.00000  -0.05098  -0.05086   1.85231
   A97        1.92404  -0.00315   0.00000  -0.01000  -0.01026   1.91378
   A98        1.89583   0.00238   0.00000   0.00821   0.00833   1.90416
   A99        1.89627   0.00241   0.00000   0.00829   0.00841   1.90469
    D1       -0.10248   0.00205   0.00000   0.02602   0.02601  -0.07647
    D2        3.02983   0.00142   0.00000   0.02157   0.02143   3.05126
    D3        3.08946   0.00003   0.00000  -0.00439  -0.00435   3.08511
    D4       -0.06142  -0.00060   0.00000  -0.00884  -0.00892  -0.07034
    D5       -2.96400  -0.00331   0.00000  -0.04237  -0.04245  -3.00645
    D6        0.15341  -0.00283   0.00000  -0.03541  -0.03547   0.11793
    D7        0.12644  -0.00126   0.00000  -0.01149  -0.01162   0.11482
    D8       -3.03934  -0.00078   0.00000  -0.00453  -0.00464  -3.04398
    D9       -0.10620  -0.00130   0.00000  -0.01655  -0.01650  -0.12270
   D10        3.04456  -0.00085   0.00000  -0.01263  -0.01268   3.03188
   D11       -3.12757   0.00133   0.00000   0.01017   0.01011  -3.11746
   D12       -0.02986   0.00189   0.00000   0.01939   0.01940  -0.01046
   D13        0.00531   0.00085   0.00000   0.00630   0.00626   0.01157
   D14        3.10302   0.00141   0.00000   0.01552   0.01555   3.11857
   D15       -3.04599   0.00026   0.00000   0.00034   0.00036  -3.04563
   D16       -0.97536  -0.00141   0.00000  -0.00909  -0.00960  -0.98496
   D17        1.17003   0.00075   0.00000   0.00320   0.00370   1.17373
   D18        1.15688  -0.00068   0.00000  -0.00237  -0.00235   1.15453
   D19       -3.02759   0.00019   0.00000   0.00365   0.00370  -3.02389
   D20       -0.93879   0.00144   0.00000   0.01241   0.01246  -0.92633
   D21       -1.94104  -0.00131   0.00000  -0.01149  -0.01155  -1.95260
   D22        0.15767  -0.00044   0.00000  -0.00547  -0.00550   0.15217
   D23        2.24647   0.00081   0.00000   0.00328   0.00326   2.24973
   D24        0.05307  -0.00004   0.00000  -0.00612  -0.00604   0.04704
   D25       -3.09162  -0.00074   0.00000  -0.01142  -0.01145  -3.10307
   D26       -3.13236   0.00088   0.00000   0.00409   0.00403  -3.12833
   D27        0.00613   0.00018   0.00000  -0.00122  -0.00138   0.00475
   D28        0.01671  -0.00109   0.00000  -0.01394  -0.01403   0.00268
   D29       -3.10825  -0.00171   0.00000  -0.01987  -0.01996  -3.12821
   D30       -3.12173  -0.00040   0.00000  -0.00862  -0.00872  -3.13044
   D31        0.03650  -0.00102   0.00000  -0.01455  -0.01465   0.02185
   D32       -0.10472   0.00123   0.00000   0.02036   0.02037  -0.08435
   D33        3.05982   0.00070   0.00000   0.01357   0.01362   3.07344
   D34        3.02006   0.00174   0.00000   0.02601   0.02615   3.04621
   D35       -0.09858   0.00121   0.00000   0.01922   0.01940  -0.07919
   D36        3.11751   0.00144   0.00000   0.01676   0.01675   3.13426
   D37       -0.00953   0.00030   0.00000   0.00357   0.00396  -0.00558
   D38       -0.00738   0.00084   0.00000   0.01088   0.01084   0.00346
   D39       -3.13442  -0.00030   0.00000  -0.00231  -0.00195  -3.13637
   D40        0.16145  -0.00412   0.00000  -0.05328  -0.05308   0.10837
   D41       -2.95706  -0.00426   0.00000  -0.05460  -0.05437  -3.01143
   D42       -3.00467  -0.00362   0.00000  -0.04609  -0.04591  -3.05058
   D43        0.16001  -0.00376   0.00000  -0.04741  -0.04720   0.11281
   D44       -1.45001  -0.00024   0.00000  -0.02074  -0.02075  -1.47075
   D45        2.64580  -0.00167   0.00000  -0.03226  -0.03219   2.61361
   D46        0.62012  -0.00459   0.00000  -0.05634  -0.05635   0.56377
   D47        1.66846  -0.00012   0.00000  -0.01943  -0.01947   1.64898
   D48       -0.51892  -0.00156   0.00000  -0.03095  -0.03092  -0.54984
   D49       -2.54460  -0.00448   0.00000  -0.05503  -0.05507  -2.59968
   D50       -0.12041   0.00337   0.00000   0.04415   0.04426  -0.07615
   D51        3.04323   0.00235   0.00000   0.03070   0.03087   3.07411
   D52        3.04324   0.00321   0.00000   0.04282   0.04295   3.08619
   D53       -0.07631   0.00219   0.00000   0.02936   0.02957  -0.04674
   D54       -1.09149   0.00161   0.00000  -0.00013  -0.00024  -1.09173
   D55        1.13394  -0.00289   0.00000  -0.00640  -0.00624   1.12771
   D56        3.13244   0.00158   0.00000   0.01054   0.01050  -3.14025
   D57       -2.76756  -0.00037   0.00000  -0.01129  -0.01126  -2.77882
   D58        1.36624  -0.00002   0.00000  -0.00759  -0.00755   1.35868
   D59       -0.69205   0.00201   0.00000   0.00846   0.00847  -0.68357
   D60        1.33840  -0.00329   0.00000  -0.02758  -0.02754   1.31086
   D61       -0.81099  -0.00294   0.00000  -0.02389  -0.02384  -0.83482
   D62       -2.86927  -0.00091   0.00000  -0.00783  -0.00781  -2.87708
   D63       -0.70791  -0.00010   0.00000  -0.00229  -0.00235  -0.71026
   D64       -2.85729   0.00025   0.00000   0.00140   0.00135  -2.85595
   D65        1.36761   0.00228   0.00000   0.01746   0.01738   1.38498
   D66       -1.19527   0.00059   0.00000   0.00786   0.00796  -1.18731
   D67        0.95252   0.00109   0.00000   0.00876   0.00876   0.96127
   D68        2.98356  -0.00104   0.00000  -0.00738  -0.00739   2.97617
   D69        0.97019   0.00031   0.00000   0.00328   0.00336   0.97355
   D70        3.11797   0.00082   0.00000   0.00419   0.00416   3.12213
   D71       -1.13417  -0.00132   0.00000  -0.01196  -0.01199  -1.14616
   D72        2.99438  -0.00007   0.00000  -0.00184  -0.00180   2.99258
   D73       -1.14102   0.00043   0.00000  -0.00094  -0.00100  -1.14202
   D74        0.89002  -0.00170   0.00000  -0.01708  -0.01715   0.87288
   D75       -3.03650   0.00056   0.00000   0.00290   0.00289  -3.03361
   D76        1.17440  -0.00343   0.00000  -0.03044  -0.03041   1.14399
   D77       -0.88680  -0.00007   0.00000  -0.00471  -0.00477  -0.89157
   D78        1.09795   0.00048   0.00000   0.00377   0.00380   1.10175
   D79       -0.97434  -0.00352   0.00000  -0.02958  -0.02950  -1.00384
   D80       -3.03554  -0.00016   0.00000  -0.00384  -0.00386  -3.03940
   D81       -0.95378   0.00285   0.00000   0.02168   0.02167  -0.93211
   D82       -3.02607  -0.00114   0.00000  -0.01167  -0.01163  -3.03770
   D83        1.19591   0.00222   0.00000   0.01407   0.01401   1.20993
   D84        1.29790  -0.00103   0.00000  -0.01617  -0.01636   1.28154
   D85       -2.88901  -0.00021   0.00000  -0.00628  -0.00630  -2.89531
   D86       -0.84925  -0.00179   0.00000  -0.01953  -0.01964  -0.86889
   D87       -2.89722   0.00061   0.00000   0.00325   0.00330  -2.89392
   D88       -0.80094   0.00142   0.00000   0.01314   0.01336  -0.78759
   D89        1.23881  -0.00016   0.00000  -0.00011   0.00002   1.23883
   D90       -0.85558  -0.00040   0.00000  -0.00681  -0.00692  -0.86249
   D91        1.24070   0.00041   0.00000   0.00308   0.00314   1.24384
   D92       -3.00273  -0.00117   0.00000  -0.01017  -0.01019  -3.01293
   D93        2.95217   0.00190   0.00000   0.01617   0.01610   2.96827
   D94        0.86488  -0.00081   0.00000  -0.00405  -0.00402   0.86086
   D95       -1.19821   0.00203   0.00000   0.01758   0.01753  -1.18069
   D96        0.86555  -0.00078   0.00000  -0.00425  -0.00423   0.86132
   D97       -1.22174  -0.00350   0.00000  -0.02447  -0.02435  -1.24609
   D98        2.99835  -0.00066   0.00000  -0.00283  -0.00280   2.99555
   D99       -1.19229   0.00210   0.00000   0.01771   0.01765  -1.17464
   D100       3.00361  -0.00062   0.00000  -0.00250  -0.00247   3.00114
   D101       0.94051   0.00222   0.00000   0.01913   0.01908   0.95959
   D102       1.20500  -0.00050   0.00000  -0.00979  -0.00993   1.19507
   D103      -2.98642   0.00132   0.00000   0.00753   0.00746  -2.97896
   D104      -0.93708  -0.00105   0.00000  -0.01072  -0.01077  -0.94785
   D105      -2.97829   0.00005   0.00000  -0.00172  -0.00169  -2.97998
   D106      -0.88652   0.00187   0.00000   0.01560   0.01570  -0.87082
   D107       1.16282  -0.00050   0.00000  -0.00265  -0.00253   1.16029
   D108      -0.94006  -0.00134   0.00000  -0.01363  -0.01368  -0.95374
   D109       1.15170   0.00048   0.00000   0.00369   0.00371   1.15541
   D110      -3.08214  -0.00189   0.00000  -0.01455  -0.01452  -3.09666
   D111      -1.17127   0.00176   0.00000   0.01608   0.01616  -1.15511
   D112       0.94914   0.00055   0.00000   0.00623   0.00622   0.95536
   D113       3.03390   0.00081   0.00000   0.00837   0.00835   3.04224
   D114       3.01874  -0.00035   0.00000  -0.00191  -0.00188   3.01687
   D115      -1.14404  -0.00155   0.00000  -0.01176  -0.01181  -1.15585
   D116       0.94072  -0.00129   0.00000  -0.00962  -0.00969   0.93103
   D117       0.97652   0.00119   0.00000   0.01082   0.01090   0.98741
   D118       3.09693  -0.00002   0.00000   0.00097   0.00096   3.09789
   D119      -1.10150   0.00024   0.00000   0.00311   0.00309  -1.09842
   D120       0.01421  -0.00117   0.00000  -0.01419  -0.01416   0.00006
   D121      -3.11146  -0.00118   0.00000  -0.01549  -0.01546  -3.12692
   D122       3.13462  -0.00028   0.00000  -0.00164  -0.00145   3.13318
   D123       0.00895  -0.00030   0.00000  -0.00295  -0.00275   0.00620
   D124       0.05127  -0.00098   0.00000  -0.01401  -0.01409   0.03718
   D125      -3.10518  -0.00015   0.00000  -0.00150  -0.00115  -3.10632
   D126      -3.10670  -0.00089   0.00000  -0.01238  -0.01248  -3.11918
   D127       0.02004  -0.00007   0.00000   0.00013   0.00046   0.02050
   D128       3.13297   0.00049   0.00000   0.00634   0.00634   3.13931
   D129       0.00619  -0.00051   0.00000  -0.00663  -0.00663  -0.00044
   D130      -1.06829  -0.00144   0.00000  -0.00833  -0.00864  -1.07693
   D131       1.05714   0.00141   0.00000   0.00779   0.00810   1.06524
   D132       3.13642  -0.00003   0.00000  -0.00036  -0.00036   3.13607
         Item               Value     Threshold  Converged?
 Maximum Force            0.039907     0.000450     NO 
 RMS     Force            0.007418     0.000300     NO 
 Maximum Displacement     0.438897     0.001800     NO 
 RMS     Displacement     0.094145     0.001200     NO 
 Predicted change in Energy=-2.573027D-02
 GradGradGradGradGradGradGradGradGradGradGradGradGradGradGradGradGradGrad

 Stoichiometry    C20H29NO4
 Framework group  C1[X(C20H29NO4)]
 Deg. of freedom   156
 Full point group                 C1      NOp   1
 Largest Abelian subgroup         C1      NOp   1
 Largest concise Abelian subgroup C1      NOp   1
                         Standard orientation:                         
 ---------------------------------------------------------------------
 Center     Atomic      Atomic             Coordinates (Angstroms)
[...]
      2          6           0        1.143223    1.227598    0.434602
      3          6           0        2.134836    2.290767    0.252896
      4          8           0        1.778872    3.598231    0.471589
      5          6           0        0.727952    4.117293   -0.353767
      6          6           0        3.446819    2.023292   -0.039487
      7          6           0        4.506064    3.075262   -0.196121
      8          7           0        3.850596    0.721999   -0.170954
      9          6           0        2.999812   -0.351812   -0.041869
     10          6           0        1.629170   -0.160480    0.238291
     11          6           0        0.794745   -1.315188    0.380909
     12          6           0       -0.712011   -1.224104    0.654477
     13          8           0       -1.217353   -2.467789    1.161961
     14          6           0       -1.489946   -0.776603   -0.600398
     15          6           0       -2.921178   -0.271183   -0.349220
     16          6           0       -3.934207   -1.323175    0.129706
     17          6           0       -5.352889   -0.773455    0.360049
     18          6           0       -6.078919   -0.309955   -0.912341
     19          6           0       -7.546971    0.094037   -0.693995
     20          6           0       -7.739179    1.339274    0.180259
     21          6           0        1.373078   -2.567553    0.252328
     22          6           0        2.738518   -2.749158   -0.036297
     23          6           0        3.554138   -1.648065   -0.191140
     24          8           0        4.898524   -1.662023   -0.469829
     25          6           0        5.532791   -2.925250   -0.608073
     26          1           0        0.631362    5.170763   -0.080313
     27          1           0        0.996577    4.043071   -1.416918
     28          1           0       -0.208499    3.589369   -0.167586
     29          1           0        5.260845    2.993559    0.596905
     30          1           0        5.022932    2.974214   -1.159036
     31          1           0        4.054739    4.065116   -0.136951
     32          1           0        4.820782    0.510314   -0.360690
     33          1           0       -0.878527   -0.495103    1.448066
     34          1           0       -1.506387   -2.997522    0.402835
     35          1           0       -1.498005   -1.618973   -1.314289
     36          1           0       -0.927690    0.026005   -1.084043
     37          1           0       -2.868771    0.548065    0.380868
     38          1           0       -3.280230    0.178039   -1.284950
     39          1           0       -3.571177   -1.771789    1.060327
     40          1           0       -3.983976   -2.140789   -0.608331
     41          1           0       -5.958027   -1.556956    0.839666
     42          1           0       -5.298969    0.052475    1.082837
     43          1           0       -6.044141   -1.123896   -1.651676
     44          1           0       -5.542734    0.535707   -1.365269
     45          1           0       -8.012137    0.272698   -1.673181
     46          1           0       -8.091315   -0.751575   -0.248941
     47          1           0       -7.365406    1.185261    1.198563
     48          1           0       -7.206853    2.201813   -0.240499
     49          1           0       -8.799290    1.607917    0.256219
     50          1           0        0.754519   -3.442722    0.410668
     51          1           0        3.135802   -3.754084   -0.126846
     52          1           0        5.457416   -3.511157    0.316704
     53          1           0        5.099569   -3.498893   -1.437243
     54          1           0        6.582269   -2.714779   -0.821070
 ---------------------------------------------------------------------
 Rotational constants (GHZ):           0.3296706           0.0966915           0.0771861

 **********************************************************************

            Population analysis using the SCF density.

 **********************************************************************

 Orbital symmetries:
       Occupied  (A) (A) (A) (A) (A) (A) (A) (A) (A) (A) (A) (A)
                 (A) (A) (A) (A) (A) (A) (A) (A) (A) (A) (A) (A)
                 (A) (A) (A) (A) (A) (A) (A) (A) (A) (A) (A) (A)
                 (A) (A) (A) (A) (A) (A) (A) (A) (A) (A) (A) (A)
                 (A) (A) (A) (A) (A) (A) (A) (A) (A) (A) (A) (A)
                 (A) (A) (A) (A) (A) (A) (A) (A) (A) (A) (A) (A)
                 (A) (A) (A) (A) (A) (A) (A) (A) (A) (A) (A) (A)
                 (A) (A) (A) (A) (A) (A) (A) (A) (A) (A)
       Virtual   (A) (A) (A) (A) (A) (A) (A) (A) (A) (A) (A) (A)
                 (A) (A) (A) (A) (A) (A) (A) (A) (A) (A) (A) (A)
                 (A) (A) (A) (A) (A) (A) (A) (A) (A) (A) (A) (A)
                 (A) (A) (A) (A) (A) (A) (A) (A) (A) (A) (A) (A)
                 (A) (A) (A) (A) (A) (A) (A) (A) (A) (A) (A) (A)
                 (A) (A) (A) (A) (A) (A) (A) (A) (A) (A) (A) (A)
                 (A) (A) (A) (A) (A) (A) (A) (A) (A) (A) (A) (A)
                 (A) (A) (A) (A) (A) (A) (A) (A) (A) (A) (A) (A)
                 (A) (A) (A) (A) (A) (A) (A) (A) (A) (A) (A) (A)
                 (A) (A) (A) (A) (A) (A) (A) (A) (A) (A) (A) (A)
                 (A) (A) (A) (A) (A) (A) (A) (A) (A) (A) (A) (A)
                 (A) (A) (A) (A) (A) (A) (A) (A) (A) (A) (A) (A)
                 (A) (A) (A) (A) (A) (A) (A) (A) (A) (A) (A) (A)
                 (A) (A) (A) (A) (A) (A) (A) (A) (A) (A) (A) (A)
                 (A) (A) (A) (A) (A) (A) (A) (A) (A) (A) (A) (A)
                 (A) (A) (A) (A) (A) (A) (A) (A) (A) (A) (A) (A)
                 (A) (A) (A) (A) (A) (A) (A) (A) (A) (A) (A) (A)
                 (A) (A) (A) (A) (A) (A) (A) (A) (A) (A) (A) (A)
                 (A) (A) (A) (A) (A) (A) (A) (A) (A) (A) (A) (A)
                 (A) (A) (A) (A) (A) (A) (A) (A) (A) (A) (A) (A)
                 (A) (A) (A) (A) (A) (A) (A) (A) (A) (A) (A) (A)
                 (A) (A) (A) (A) (A) (A) (A) (A) (A) (A) (A) (A)
                 (A) (A) (A) (A) (A) (A) (A) (A) (A) (A) (A) (A)
                 (A) (A) (A) (A) (A) (A) (A) (A) (A) (A) (A) (A)
                 (A) (A) (A) (A) (A) (A) (A) (A) (A) (A) (A) (A)
                 (A) (A) (A) (A) (A) (A) (A) (A) (A) (A) (A) (A)
                 (A) (A) (A) (A) (A) (A) (A) (A) (A) (A) (A) (A)
                 (A) (A) (A) (A) (A) (A) (A) (A) (A) (A) (A) (A)
                 (A) (A) (A)
 The electronic state is 1-A.
 Alpha  occ. eigenvalues --  -19.19768 -19.15473 -19.13284 -19.09684 -14.39039
 Alpha  occ. eigenvalues --  -10.25648 -10.25574 -10.25026 -10.24518 -10.24211
 Alpha  occ. eigenvalues --  -10.22845 -10.22005 -10.21538 -10.19903 -10.19798
 Alpha  occ. eigenvalues --  -10.19649 -10.19084 -10.18256 -10.16975 -10.16888
 Alpha  occ. eigenvalues --  -10.16572 -10.16380 -10.16294 -10.16232 -10.16069
 Alpha  occ. eigenvalues --   -1.08191  -1.04223  -1.00548  -0.99359  -0.98150
 Alpha  occ. eigenvalues --   -0.85407  -0.79981  -0.79325  -0.77399  -0.76734
 Alpha  occ. eigenvalues --   -0.75568  -0.73407  -0.71814  -0.70654  -0.68158
 Alpha  occ. eigenvalues --   -0.67146  -0.64062  -0.62597  -0.61528  -0.60094
 Alpha  occ. eigenvalues --   -0.58870  -0.57013  -0.55266  -0.54410  -0.54109
 Alpha  occ. eigenvalues --   -0.52549  -0.49923  -0.48528  -0.47894  -0.46813
 Alpha  occ. eigenvalues --   -0.46164  -0.46077  -0.45809  -0.44937  -0.44060
 Alpha  occ. eigenvalues --   -0.43730  -0.43309  -0.42907  -0.42515  -0.42195
 Alpha  occ. eigenvalues --   -0.41419  -0.40848  -0.40702  -0.40439  -0.39462
 Alpha  occ. eigenvalues --   -0.38170  -0.37897  -0.37122  -0.36711  -0.36462
 Alpha  occ. eigenvalues --   -0.35991  -0.35401  -0.34595  -0.34114  -0.33699
 Alpha  occ. eigenvalues --   -0.33472  -0.32834  -0.31881  -0.31565  -0.30681
 Alpha  occ. eigenvalues --   -0.30258  -0.29799  -0.29183  -0.28045  -0.25532
 Alpha  occ. eigenvalues --   -0.24585  -0.23123  -0.21850  -0.19293
 Alpha virt. eigenvalues --   -0.03417  -0.00675   0.02590   0.07286   0.08376
 Alpha virt. eigenvalues --    0.08853   0.10042   0.10075   0.10253   0.11201
 Alpha virt. eigenvalues --    0.12390   0.12892   0.13134   0.13579   0.13937
 Alpha virt. eigenvalues --    0.14476   0.14810   0.15149   0.15395   0.15814
 Alpha virt. eigenvalues --    0.16004   0.16577   0.17160   0.17384   0.17582
 Alpha virt. eigenvalues --    0.18205   0.18440   0.19002   0.19325   0.19727
 Alpha virt. eigenvalues --    0.20409   0.20787   0.20954   0.21220   0.22095
 Alpha virt. eigenvalues --    0.22258   0.22898   0.23254   0.23993   0.24229
 Alpha virt. eigenvalues --    0.25598   0.26219   0.26570   0.26786   0.28199
 Alpha virt. eigenvalues --    0.28803   0.29340   0.29783   0.31107   0.31295
 Alpha virt. eigenvalues --    0.31927   0.34488   0.36346   0.37599   0.39203
 Alpha virt. eigenvalues --    0.40685   0.43883   0.47548   0.48306   0.49776
 Alpha virt. eigenvalues --    0.50360   0.51032   0.51397   0.51827   0.52014
 Alpha virt. eigenvalues --    0.52798   0.52927   0.53799   0.54216   0.54634
 Alpha virt. eigenvalues --    0.54939   0.55559   0.56236   0.56440   0.56996
 Alpha virt. eigenvalues --    0.57309   0.57721   0.58666   0.59432   0.59773
 Alpha virt. eigenvalues --    0.60816   0.61224   0.62254   0.62483   0.62945
 Alpha virt. eigenvalues --    0.63254   0.64249   0.64645   0.66270   0.67411
 Alpha virt. eigenvalues --    0.67819   0.68463   0.68948   0.69607   0.70027
 Alpha virt. eigenvalues --    0.70381   0.70591   0.71253   0.72997   0.73357
 Alpha virt. eigenvalues --    0.73675   0.75371   0.77317   0.77540   0.79265
 Alpha virt. eigenvalues --    0.80496   0.81147   0.81612   0.82501   0.83707
 Alpha virt. eigenvalues --    0.84290   0.84980   0.85431   0.85800   0.85933
 Alpha virt. eigenvalues --    0.86016   0.86658   0.87125   0.87445   0.88066
 Alpha virt. eigenvalues --    0.88761   0.89112   0.89150   0.89941   0.90321
 Alpha virt. eigenvalues --    0.90686   0.91042   0.91621   0.91789   0.91945
 Alpha virt. eigenvalues --    0.93142   0.93447   0.94119   0.94405   0.95028
 Alpha virt. eigenvalues --    0.96481   0.97360   0.97829   0.98177   0.98629
 Alpha virt. eigenvalues --    0.99602   0.99853   1.00754   1.02081   1.02489
 Alpha virt. eigenvalues --    1.02677   1.04306   1.05074   1.05417   1.05962
 Alpha virt. eigenvalues --    1.06257   1.08317   1.09173   1.12091   1.12764
 Alpha virt. eigenvalues --    1.13711   1.14210   1.14891   1.17146   1.17852
 Alpha virt. eigenvalues --    1.19672   1.20703   1.21313   1.22697   1.23176
 Alpha virt. eigenvalues --    1.23566   1.23870   1.27717   1.29417   1.31706
 Alpha virt. eigenvalues --    1.33298   1.34182   1.35213   1.36955   1.37020
 Alpha virt. eigenvalues --    1.38302   1.39503   1.40475   1.42717   1.43619
 Alpha virt. eigenvalues --    1.44335   1.44517   1.45974   1.46868   1.48206
 Alpha virt. eigenvalues --    1.48827   1.49632   1.49961   1.53649   1.53984
 Alpha virt. eigenvalues --    1.55517   1.57279   1.59510   1.60294   1.62819
 Alpha virt. eigenvalues --    1.63844   1.64407   1.66187   1.68943   1.69427
 Alpha virt. eigenvalues --    1.70839   1.72354   1.74737   1.75207   1.76588
 Alpha virt. eigenvalues --    1.77367   1.78309   1.78963   1.79620   1.81212
 Alpha virt. eigenvalues --    1.82027   1.82180   1.83496   1.84485   1.85222
 Alpha virt. eigenvalues --    1.86159   1.87291   1.87999   1.88563   1.89588
 Alpha virt. eigenvalues --    1.90897   1.91769   1.92453   1.93724   1.94673
 Alpha virt. eigenvalues --    1.94953   1.96391   1.97209   1.98755   1.99063
 Alpha virt. eigenvalues --    1.99826   2.00320   2.00518   2.01681   2.02609
 Alpha virt. eigenvalues --    2.02872   2.03443   2.05475   2.06122   2.06292
 Alpha virt. eigenvalues --    2.08246   2.10267   2.11521   2.12076   2.12574
 Alpha virt. eigenvalues --    2.13167   2.13769   2.14536   2.18139   2.19369
 Alpha virt. eigenvalues --    2.19812   2.20811   2.21757   2.22441   2.23730
 Alpha virt. eigenvalues --    2.25348   2.27019   2.27393   2.28038   2.29140
 Alpha virt. eigenvalues --    2.30061   2.30424   2.32185   2.32964   2.33955
 Alpha virt. eigenvalues --    2.34643   2.34897   2.36741   2.37370   2.38480
 Alpha virt. eigenvalues --    2.39674   2.40688   2.41245   2.41761   2.42251
 Alpha virt. eigenvalues --    2.45628   2.47872   2.49388   2.50166   2.50914
 Alpha virt. eigenvalues --    2.52554   2.54558   2.55658   2.56967   2.57299
 Alpha virt. eigenvalues --    2.60209   2.60955   2.63593   2.64163   2.65988
 Alpha virt. eigenvalues --    2.67495   2.68710   2.70152   2.72205   2.73019
 Alpha virt. eigenvalues --    2.74932   2.77599   2.78023   2.79363   2.81360
 Alpha virt. eigenvalues --    2.83163   2.85386   2.87953   2.89565   2.96847
 Alpha virt. eigenvalues --    2.97532   3.00215   3.01464   3.05638   3.12413
 Alpha virt. eigenvalues --    3.14885   3.21804   3.44985   3.48595   3.90399
 Alpha virt. eigenvalues --    3.96948   4.05988   4.10350   4.11253   4.12218
 Alpha virt. eigenvalues --    4.15512   4.19075   4.21486   4.23605   4.24937
 Alpha virt. eigenvalues --    4.27398   4.29907   4.32934   4.36646   4.39001
 Alpha virt. eigenvalues --    4.40829   4.44551   4.51120   4.54598   4.57992
 Alpha virt. eigenvalues --    4.61279   4.63169   4.90687   5.06820
          Condensed to atoms (all electrons):
 Mulliken charges:
               1
     1  O   -0.561929
     2  C    0.400384
     3  C    0.209066
     4  O   -0.527686
     5  C   -0.217125
     6  C    0.353105
     7  C   -0.533711
     8  N   -0.783482
     9  C    0.262430
    10  C    0.015898
    11  C    0.073042
    12  C    0.075956
    13  O   -0.626860
    14  C   -0.280237
    15  C   -0.256147
    16  C   -0.271743
    17  C   -0.255080
    18  C   -0.249154
    19  C   -0.247897
    20  C   -0.442378
    21  C   -0.203827
    22  C   -0.201403
    23  C    0.371734
    24  O   -0.550874
    25  C   -0.215942
    26  H    0.151845
    27  H    0.126552
    28  H    0.191794
    29  H    0.172048
    30  H    0.162519
    31  H    0.201416
    32  H    0.347049
    33  H    0.179305
    34  H    0.385932
    35  H    0.103891
    36  H    0.154073
    37  H    0.153382
    38  H    0.126633
    39  H    0.157825
    40  H    0.105832
    41  H    0.122314
    42  H    0.133538
    43  H    0.121429
    44  H    0.130954
    45  H    0.126419
    46  H    0.127176
    47  H    0.148120
    48  H    0.139946
    49  H    0.138519
    50  H    0.127636
    51  H    0.135623
    52  H    0.161404
    53  H    0.159465
    54  H    0.171220
 Sum of Mulliken charges =  -0.00000
 Mulliken charges with hydrogens summed into heavy atoms:
               1
     1  O   -0.561929
     2  C    0.400384
     3  C    0.209066
     4  O   -0.527686
     5  C    0.253066
     6  C    0.353105
     7  C    0.002272
     8  N   -0.436433
     9  C    0.262430
    10  C    0.015898
    11  C    0.073042
    12  C    0.255260
    13  O   -0.240928
    14  C   -0.022273
    15  C    0.023868
    16  C   -0.008086
    17  C    0.000772
    18  C    0.003229
    19  C    0.005698
    20  C   -0.015793
    21  C   -0.076191
    22  C   -0.065780
    23  C    0.371734
    24  O   -0.550874
    25  C    0.276147
 Electronic spatial extent (au):  <R**2>=          13807.8195
 Charge=             -0.0000 electrons
 Dipole moment (field-independent basis, Debye):
    X=              5.6736    Y=             -1.8307    Z=             -3.5365  Tot=              6.9316
 Quadrupole moment (field-independent basis, Debye-Ang):
   XX=           -120.2204   YY=           -138.3335   ZZ=           -155.6028
   XY=             -6.3079   XZ=             -2.4435   YZ=             -0.0775
 Traceless Quadrupole moment (field-independent basis, Debye-Ang):
   XX=             17.8318   YY=             -0.2813   ZZ=            -17.5506
   XY=             -6.3079   XZ=             -2.4435   YZ=             -0.0775
 Octapole moment (field-independent basis, Debye-Ang**2):
  XXX=            237.4496  YYY=            -20.9618  ZZZ=              1.3908  XYY=             59.4456
  XXY=            -36.9499  XXZ=            -18.4110  XZZ=             10.5039  YZZ=              8.8097
  YYZ=            -31.8997  XYZ=             -2.5575
 Hexadecapole moment (field-independent basis, Debye-Ang**3):
 XXXX=         -13308.2528 YYYY=          -3582.8913 ZZZZ=           -455.5572 XXXY=           -195.0997
 XXXZ=           -135.3754 YYYX=           -135.0682 YYYZ=             -9.6763 ZZZX=            -19.0828
 ZZZY=             11.8041 XXYY=          -2731.5658 XXZZ=          -2456.6421 YYZZ=           -759.4775
 XXYZ=             26.8468 YYXZ=            -39.1280 ZZXY=             -9.5943
 N-N= 2.222602546454D+03 E-N=-7.086653348568D+03  KE= 1.124590542621D+03
 1\1\GINC-C071\FOpt\RB3LYP\6-31G(d)\C20H29N1O4\XYCAO\28-Dec-2023\0\\# o
 pt b3lyp/6-31g(d)\\molecule_13_1\\0,1\O,-0.9374222693,-1.5462622344,0.
 3708264407\C,-2.0219233186,-0.9512169776,0.2548741266\C,-3.2140337236,
 -1.6541092751,-0.2262283194\O,-3.147470709,-2.9970208332,-0.5021912893
 \C,-2.218629369,-3.3912455978,-1.5204799749\C,-4.4346247235,-1.0386194
 128,-0.324502686\C,-5.6908088533,-1.726421134,-0.7740637935\N,-4.55052
 48762,0.2773945042,0.0337705048\C,-3.4929561649,1.0374247446,0.4781438
 663\C,-2.1986832021,0.4837709063,0.5880559451\C,-1.140103749,1.3161111
 912,1.074444962\C,0.3085664042,0.828481324,1.2049120645\O,1.0590526515
 ,1.6793280558,2.0838281417\C,0.992360924,0.7079470949,-0.1727836954\C,
 2.2794992094,-0.1342388212,-0.2038023244\C,3.4856902603,0.4483906992,0
 .5498104183\C,4.7514630388,-0.4242320327,0.4845695535\C,5.3814073095,-
 0.5425459176,-0.9118904938\C,6.7265747201,-1.2880500348,-0.9403158273\
 C,6.6365199986,-2.7739497618,-0.5717058396\C,-1.4369946798,2.622066418
 7,1.4290678834\C,-2.7281254875,3.1687987483,1.307513866\C,-3.756750345
 6,2.3858734678,0.8273300856\O,-5.0630988553,2.7718663142,0.6549930464\
 C,-5.4121844358,4.1025711265,1.0078545766\H,-2.3523112561,-4.469070127
 4,-1.6401835184\H,-2.4493277372,-2.8906774597,-2.4713571502\H,-1.19426
 26736,-3.1668979436,-1.21939933\H,-6.4228006808,-1.7800073955,0.042378
 0511\H,-6.1598525767,-1.1864100778,-1.6065022342\H,-5.461161573,-2.742
 3536484,-1.0936724786\H,-5.4505735803,0.735793518,-0.0092915882\H,0.30
 43614926,-0.1526283332,1.6806852883\H,1.4654651489,2.3735305622,1.5422
 17555\H,1.1900324226,1.7285190727,-0.5451442017\H,0.2796724267,0.26253
 77936,-0.8712891318\H,2.0431704947,-1.130437007,0.1945439413\H,2.54887
 09344,-0.2844209233,-1.2579336674\H,3.2123790623,0.6006473352,1.599200
 4473\H,3.7192138777,1.4464636868,0.1436267327\H,5.5020475124,-0.003563
 1878,1.169959283\H,4.5123449485,-1.4236208651,0.8738453583\H,5.5315644
 234,0.4698791006,-1.3153412339\H,4.6845771827,-1.0434656032,-1.5983954
 404\H,7.1577916629,-1.1976369886,-1.9467853001\H,7.4314847187,-0.78604
 08984,-0.2616910227\H,6.2887688994,-2.9193933276,0.4570232499\H,5.9393
 884237,-3.3024902712,-1.2343032165\H,7.614029499,-3.2621762349,-0.6605
 006618\H,-0.648983112,3.2378663905,1.8455245435\H,-2.901297829,4.19861
 77417,1.5997377792\H,-5.2278875435,4.2927304679,2.0727745625\H,-4.8545
 094802,4.8323316463,0.4072555949\H,-6.4790948418,4.2003604148,0.799986
 5511\\Version=ES64L-G16RevA.03\State=1-A\HF=-1135.2322181\RMSD=8.099e-
 09\RMSF=2.505e-06\Dipole=-2.0068551,1.6069413,-0.9096081\Quadrupole=10
 .6412363,0.6977476,-11.338984,-7.358546,-0.5068842,4.7726927\PG=C01 [X
 (C20H29N1O4)]\\@


 "I COULD HAVE DONE IT IN A MUCH MORE COMPLICATED WAY"
 SAID THE RED QUEEN, IMMENSELY PROUD.

                                      -- LEWIS CARROLL
 Job cpu time:       0 days  4 hours 57 minutes  7.1 seconds.
 Elapsed time:       0 days  0 hours  9 minutes 26.0 seconds.
 File lengths (MBytes):  RWF=    122 Int=      0 D2E=      0 Chk=     16 Scr=      1
 Normal termination of Gaussian 16 at Thu Dec 28 10:41:51 2023.
