 Entering Gaussian System, Link 0=g16
 Input=molecule_1_1.com
 Output=molecule_1_1.log
 Initial command:
 /share/apps/g16/A03/l1.exe "/tmp/954037.tmpdir/scr/Gau-5110.inp" -scrdir="/tmp/954037.tmpdir/scr/"
 Entering Link 1 = /share/apps/g16/A03/l1.exe PID=      5112.
  
 Copyright (c) 1988,1990,1992,1993,1995,1998,2003,2009,2016,
            Gaussian, Inc.  All Rights Reserved.
  
 This is part of the Gaussian(R) 16 program.  It is based on
 the Gaussian(R) 09 system (copyright 2009, Gaussian, Inc.),
 the Gaussian(R) 03 system (copyright 2003, Gaussian, Inc.),
 the Gaussian(R) 98 system (copyright 1998, Gaussian, Inc.),
 the Gaussian(R) 94 system (copyright 1995, Gaussian, Inc.),
 the Gaussian 92(TM) system (copyright 1992, Gaussian, Inc.),
 the Gaussian 90(TM) system (copyright 1990, Gaussian, Inc.),
 the Gaussian 88(TM) system (copyright 1988, Gaussian, Inc.),
 the Gaussian 86(TM) system (copyright 1986, Carnegie Mellon
 University), and the Gaussian 82(TM) system (copyright 1983,
 Carnegie Mellon University). Gaussian is a federally registered
 trademark of Gaussian, Inc.
  
 This software contains proprietary and confidential information,
 including trade secrets, belonging to Gaussian, Inc.
  
 This software is provided under written license and may be
 used, copied, transmitted, or stored only in accord with that
 written license.
  
 The following legend is applicable only to US Government
 contracts under FAR:
  
                    RESTRICTED RIGHTS LEGEND
  
 Use, reproduction and disclosure by the US Government is
 subject to restrictions as set forth in subparagraphs (a)
 and (c) of the Commercial Computer Software - Restricted
 Rights clause in FAR 52.227-19.
  
 Gaussian, Inc.
 340 Quinnipiac St., Bldg. 40, Wallingford CT 06492
  
  
 ---------------------------------------------------------------
 Warning -- This program may not be used in any manner that
 competes with the business of Gaussian, Inc. or will provide
 assistance to any competitor of Gaussian, Inc.  The licensee
 of this program is prohibited from giving any competitor of
 Gaussian, Inc. access to this program.  By using this program,
 the user acknowledges that Gaussian, Inc. is engaged in the
 business of creating and licensing software in the field of
 computational chemistry and represents and warrants to the
 licensee that it is not a competitor of Gaussian, Inc. and that
 it will not use this program in any manner prohibited above.
 ---------------------------------------------------------------
  

 Cite this work as:
 Gaussian 16, Revision A.03,
 M. J. Frisch, G. W. Trucks, H. B. Schlegel, G. E. Scuseria, 
 M. A. Robb, J. R. Cheeseman, G. Scalmani, V. Barone, 
 G. A. Petersson, H. Nakatsuji, X. Li, M. Caricato, A. V. Marenich, 
 J. Bloino, B. G. Janesko, R. Gomperts, B. Mennucci, H. P. Hratchian, 
 J. V. Ortiz, A. F. Izmaylov, J. L. Sonnenberg, D. Williams-Young, 
 F. Ding, F. Lipparini, F. Egidi, J. Goings, B. Peng, A. Petrone, 
 T. Henderson, D. Ranasinghe, V. G. Zakrzewski, J. Gao, N. Rega, 
 G. Zheng, W. Liang, M. Hada, M. Ehara, K. Toyota, R. Fukuda, 
 J. Hasegawa, M. Ishida, T. Nakajima, Y. Honda, O. Kitao, H. Nakai, 
 T. Vreven, K. Throssell, J. A. Montgomery, Jr., J. E. Peralta, 
 F. Ogliaro, M. J. Bearpark, J. J. Heyd, E. N. Brothers, K. N. Kudin, 
 V. N. Staroverov, T. A. Keith, R. Kobayashi, J. Normand, 
 K. Raghavachari, A. P. Rendell, J. C. Burant, S. S. Iyengar, 
 J. Tomasi, M. Cossi, J. M. Millam, M. Klene, C. Adamo, R. Cammi, 
 J. W. Ochterski, R. L. Martin, K. Morokuma, O. Farkas, 
 J. B. Foresman, and D. J. Fox, Gaussian, Inc., Wallingford CT, 2016.
 
 ******************************************
 Gaussian 16:  ES64L-G16RevA.03 25-Dec-2016
                28-Dec-2023 
 ******************************************
 %nprocs=32
 Will use up to   32 processors via shared memory.
 %chk=molecule_1_1.chk
 %mem=10GB
 --------------------
 # opt b3lyp/6-31g(d)
 --------------------
 1/18=20,19=15,26=3,38=1/1,3;
 2/9=110,12=2,17=6,18=5,40=1/2;
 3/5=1,6=6,7=1,11=2,25=1,30=1,71=1,74=-5/1,2,3;
 4//1;
 5/5=2,38=5/2;
 6/7=2,8=2,9=2,10=2,28=1/1;
 7//1,2,3,16;
 1/18=20,19=15,26=3/3(2);
 2/9=110/2;
 99//99;
 2/9=110/2;
 3/5=1,6=6,7=1,11=2,25=1,30=1,71=1,74=-5/1,2,3;
 4/5=5,16=3,69=1/1;
 5/5=2,38=5/2;
 7//1,2,3,16;
 1/18=20,19=15,26=3/3(-5);
 2/9=110/2;
 6/7=2,8=2,9=2,10=2,19=2,28=1/1;
 99/9=1/99;
 ------------
 molecule_1_1
 ------------
 Symbolic Z-matrix:
 Charge =  0 Multiplicity = 1
 C                    -2.4819    0.8361    1.0276 
 C                    -1.8752    0.4703   -0.3345 
 C                    -2.4451   -0.8548   -0.879 
 C                    -1.9562   -2.0683   -0.0823 
 C                    -0.3594    0.4242   -0.2417 
 C                     0.3097   -0.8026   -0.0243 
 C                     1.7099   -0.8181    0.1015 
 C                     2.4537    0.3691    0.0229 
 C                     3.9278    0.3376    0.1573 
 O                     4.66603   1.51579   0.0775 
 O                     4.52918  -0.75471   0.34504 
 C                     1.7814    1.5831   -0.1831 
 C                     0.3875    1.6172   -0.3102 
 O                    -0.259     2.8388   -0.5027 
 C                    -0.4609   -2.0694    0.0455 
 O                     0.1291   -3.1635    0.2568 
 H                    -2.1576    0.1231    1.8147 
 H                    -3.5911    0.8319    0.9696 
 H                    -2.1579    1.8555    1.3267 
 H                    -2.1723    1.262    -1.0576 
 H                    -2.1306   -0.9724   -1.94 
 H                    -3.5566   -0.8277   -0.8669 
 H                    -2.285    -2.9944   -0.6016 
 H                    -2.4091   -2.0697    0.9314 
 H                     2.2221   -1.7591    0.26 
 H                     5.67491   1.50489   0.16819 
 H                     2.337     2.5109   -0.2425 
 H                     0.2543    3.711    -0.5538 
 

 GradGradGradGradGradGradGradGradGradGradGradGradGradGradGradGradGradGrad
 Berny optimization.
 Initialization pass.
                           ----------------------------
                           !    Initial Parameters    !
                           ! (Angstroms and Degrees)  !
 --------------------------                            --------------------------
 ! Name  Definition              Value          Derivative Info.                !
 --------------------------------------------------------------------------------
 ! R1    R(1,2)                  1.5353         estimate D2E/DX2                !
 ! R2    R(1,17)                 1.1104         estimate D2E/DX2                !
 ! R3    R(1,18)                 1.1107         estimate D2E/DX2                !
 ! R4    R(1,19)                 1.1107         estimate D2E/DX2                !
 ! R5    R(2,3)                  1.5418         estimate D2E/DX2                !
 ! R6    R(2,5)                  1.5193         estimate D2E/DX2                !
 ! R7    R(2,20)                 1.1126         estimate D2E/DX2                !
 ! R8    R(3,4)                  1.5318         estimate D2E/DX2                !
 ! R9    R(3,21)                 1.1129         estimate D2E/DX2                !
 ! R10   R(3,22)                 1.1119         estimate D2E/DX2                !
 ! R11   R(4,15)                 1.5008         estimate D2E/DX2                !
 ! R12   R(4,23)                 1.1115         estimate D2E/DX2                !
 ! R13   R(4,24)                 1.1103         estimate D2E/DX2                !
 ! R14   R(5,6)                  1.4142         estimate D2E/DX2                !
 ! R15   R(5,13)                 1.4092         estimate D2E/DX2                !
 ! R16   R(6,7)                  1.4059         estimate D2E/DX2                !
 ! R17   R(6,15)                 1.4844         estimate D2E/DX2                !
 ! R18   R(7,8)                  1.4032         estimate D2E/DX2                !
 ! R19   R(7,25)                 1.083          estimate D2E/DX2                !
 ! R20   R(8,9)                  1.4805         estimate D2E/DX2                !
 ! R21   R(8,12)                 1.4029         estimate D2E/DX2                !
 ! R22   R(9,10)                 1.3927         estimate D2E/DX2                !
 ! R23   R(9,11)                 1.261          estimate D2E/DX2                !
 ! R24   R(10,26)                1.013          estimate D2E/DX2                !
 ! R25   R(12,13)                1.4001         estimate D2E/DX2                !
 ! R26   R(12,27)                1.0831         estimate D2E/DX2                !
 ! R27   R(13,14)                1.3955         estimate D2E/DX2                !
 ! R28   R(14,28)                1.0133         estimate D2E/DX2                !
 ! R29   R(15,16)                1.2609         estimate D2E/DX2                !
 ! A1    A(2,1,17)             111.1285         estimate D2E/DX2                !
 ! A2    A(2,1,18)             110.3279         estimate D2E/DX2                !
 ! A3    A(2,1,19)             110.0178         estimate D2E/DX2                !
 ! A4    A(17,1,18)            109.0403         estimate D2E/DX2                !
 ! A5    A(17,1,19)            108.2549         estimate D2E/DX2                !
 ! A6    A(18,1,19)            107.9897         estimate D2E/DX2                !
 ! A7    A(1,2,3)              111.8401         estimate D2E/DX2                !
 ! A8    A(1,2,5)              110.3212         estimate D2E/DX2                !
 ! A9    A(1,2,20)             107.5494         estimate D2E/DX2                !
 ! A10   A(3,2,5)              111.3623         estimate D2E/DX2                !
 ! A11   A(3,2,20)             106.459          estimate D2E/DX2                !
 ! A12   A(5,2,20)             109.1287         estimate D2E/DX2                !
 ! A13   A(2,3,4)              112.2848         estimate D2E/DX2                !
 ! A14   A(2,3,21)             108.8482         estimate D2E/DX2                !
 ! A15   A(2,3,22)             110.1641         estimate D2E/DX2                !
 ! A16   A(4,3,21)             108.7816         estimate D2E/DX2                !
 ! A17   A(4,3,22)             109.4332         estimate D2E/DX2                !
 ! A18   A(21,3,22)            107.1848         estimate D2E/DX2                !
 ! A19   A(3,4,15)             111.2775         estimate D2E/DX2                !
 ! A20   A(3,4,23)             108.8236         estimate D2E/DX2                !
 ! A21   A(3,4,24)             110.2232         estimate D2E/DX2                !
 ! A22   A(15,4,23)            109.5066         estimate D2E/DX2                !
 ! A23   A(15,4,24)            109.1889         estimate D2E/DX2                !
 ! A24   A(23,4,24)            107.749          estimate D2E/DX2                !
 ! A25   A(2,5,6)              120.5131         estimate D2E/DX2                !
 ! A26   A(2,5,13)             120.0088         estimate D2E/DX2                !
 ! A27   A(6,5,13)             119.4131         estimate D2E/DX2                !
 ! A28   A(5,6,7)              119.638          estimate D2E/DX2                !
 ! A29   A(5,6,15)             120.1274         estimate D2E/DX2                !
 ! A30   A(7,6,15)             120.2251         estimate D2E/DX2                !
 ! A31   A(6,7,8)              120.9033         estimate D2E/DX2                !
 ! A32   A(6,7,25)             119.5828         estimate D2E/DX2                !
 ! A33   A(8,7,25)             119.5139         estimate D2E/DX2                !
 ! A34   A(7,8,9)              120.311          estimate D2E/DX2                !
 ! A35   A(7,8,12)             119.1008         estimate D2E/DX2                !
 ! A36   A(9,8,12)             120.5881         estimate D2E/DX2                !
 ! A37   A(8,9,10)             120.3034         estimate D2E/DX2                !
 ! A38   A(8,9,11)             120.45           estimate D2E/DX2                !
 ! A39   A(10,9,11)            119.2466         estimate D2E/DX2                !
 ! A40   A(9,10,26)            120.9104         estimate D2E/DX2                !
 ! A41   A(8,12,13)            120.7634         estimate D2E/DX2                !
 ! A42   A(8,12,27)            120.232          estimate D2E/DX2                !
 ! A43   A(13,12,27)           119.0042         estimate D2E/DX2                !
 ! A44   A(5,13,12)            120.1751         estimate D2E/DX2                !
 ! A45   A(5,13,14)            120.1498         estimate D2E/DX2                !
 ! A46   A(12,13,14)           119.675          estimate D2E/DX2                !
 ! A47   A(13,14,28)           121.7201         estimate D2E/DX2                !
 ! A48   A(4,15,6)             120.838          estimate D2E/DX2                !
 ! A49   A(4,15,16)            118.7597         estimate D2E/DX2                !
 ! A50   A(6,15,16)            120.3638         estimate D2E/DX2                !
 ! D1    D(17,1,2,3)            67.7627         estimate D2E/DX2                !
 ! D2    D(17,1,2,5)           -56.7716         estimate D2E/DX2                !
 ! D3    D(17,1,2,20)         -175.6933         estimate D2E/DX2                !
 ! D4    D(18,1,2,3)           -53.3107         estimate D2E/DX2                !
 ! D5    D(18,1,2,5)          -177.845          estimate D2E/DX2                !
 ! D6    D(18,1,2,20)           63.2333         estimate D2E/DX2                !
 ! D7    D(19,1,2,3)          -172.3561         estimate D2E/DX2                !
 ! D8    D(19,1,2,5)            63.1095         estimate D2E/DX2                !
 ! D9    D(19,1,2,20)          -55.8122         estimate D2E/DX2                !
 ! D10   D(1,2,3,4)            -70.4344         estimate D2E/DX2                !
 ! D11   D(1,2,3,21)           169.0639         estimate D2E/DX2                !
 ! D12   D(1,2,3,22)            51.81           estimate D2E/DX2                !
 ! D13   D(5,2,3,4)             53.5176         estimate D2E/DX2                !
 ! D14   D(5,2,3,21)           -66.984          estimate D2E/DX2                !
 ! D15   D(5,2,3,22)           175.7621         estimate D2E/DX2                !
 ! D16   D(20,2,3,4)           172.3635         estimate D2E/DX2                !
 ! D17   D(20,2,3,21)           51.8619         estimate D2E/DX2                !
 ! D18   D(20,2,3,22)          -65.392          estimate D2E/DX2                !
 ! D19   D(1,2,5,6)             95.7495         estimate D2E/DX2                !
 ! D20   D(1,2,5,13)           -81.3007         estimate D2E/DX2                !
 ! D21   D(3,2,5,6)            -29.0583         estimate D2E/DX2                !
 ! D22   D(3,2,5,13)           153.8915         estimate D2E/DX2                !
 ! D23   D(20,2,5,6)          -146.2954         estimate D2E/DX2                !
 ! D24   D(20,2,5,13)           36.6544         estimate D2E/DX2                !
 ! D25   D(2,3,4,15)           -51.6197         estimate D2E/DX2                !
 ! D26   D(2,3,4,23)          -172.373          estimate D2E/DX2                !
 ! D27   D(2,3,4,24)            69.6699         estimate D2E/DX2                !
 ! D28   D(21,3,4,15)           68.9204         estimate D2E/DX2                !
 ! D29   D(21,3,4,23)          -51.8329         estimate D2E/DX2                !
 ! D30   D(21,3,4,24)         -169.79           estimate D2E/DX2                !
 ! D31   D(22,3,4,15)         -174.278          estimate D2E/DX2                !
 ! D32   D(22,3,4,23)           64.9687         estimate D2E/DX2                !
 ! D33   D(22,3,4,24)          -52.9884         estimate D2E/DX2                !
 ! D34   D(3,4,15,6)            25.713          estimate D2E/DX2                !
 ! D35   D(3,4,15,16)         -156.5373         estimate D2E/DX2                !
 ! D36   D(23,4,15,6)          146.0641         estimate D2E/DX2                !
 ! D37   D(23,4,15,16)         -36.1861         estimate D2E/DX2                !
 ! D38   D(24,4,15,6)          -96.1789         estimate D2E/DX2                !
 ! D39   D(24,4,15,16)          81.5708         estimate D2E/DX2                !
 ! D40   D(2,5,6,7)           -177.9597         estimate D2E/DX2                !
 ! D41   D(2,5,6,15)             3.1632         estimate D2E/DX2                !
 ! D42   D(13,5,6,7)            -0.892          estimate D2E/DX2                !
 ! D43   D(13,5,6,15)         -179.7691         estimate D2E/DX2                !
 ! D44   D(2,5,13,12)          177.998          estimate D2E/DX2                !
 ! D45   D(2,5,13,14)           -1.8876         estimate D2E/DX2                !
 ! D46   D(6,5,13,12)            0.9153         estimate D2E/DX2                !
 ! D47   D(6,5,13,14)         -178.9702         estimate D2E/DX2                !
 ! D48   D(5,6,7,8)              0.4123         estimate D2E/DX2                !
 ! D49   D(5,6,7,25)          -179.5094         estimate D2E/DX2                !
 ! D50   D(15,6,7,8)           179.2883         estimate D2E/DX2                !
 ! D51   D(15,6,7,25)           -0.6334         estimate D2E/DX2                !
 ! D52   D(5,6,15,4)            -1.3435         estimate D2E/DX2                !
 ! D53   D(5,6,15,16)         -179.0572         estimate D2E/DX2                !
 ! D54   D(7,6,15,4)           179.786          estimate D2E/DX2                !
 ! D55   D(7,6,15,16)            2.0723         estimate D2E/DX2                !
 ! D56   D(6,7,8,9)            179.995          estimate D2E/DX2                !
 ! D57   D(6,7,8,12)             0.0546         estimate D2E/DX2                !
 ! D58   D(25,7,8,9)            -0.0833         estimate D2E/DX2                !
 ! D59   D(25,7,8,12)          179.9763         estimate D2E/DX2                !
 ! D60   D(7,8,9,10)           179.915          estimate D2E/DX2                !
 ! D61   D(7,8,9,11)            -0.0803         estimate D2E/DX2                !
 ! D62   D(12,8,9,10)           -0.1455         estimate D2E/DX2                !
 ! D63   D(12,8,9,11)          179.8592         estimate D2E/DX2                !
 ! D64   D(7,8,12,13)           -0.0359         estimate D2E/DX2                !
 ! D65   D(7,8,12,27)          179.741          estimate D2E/DX2                !
 ! D66   D(9,8,12,13)         -179.9761         estimate D2E/DX2                !
 ! D67   D(9,8,12,27)           -0.1992         estimate D2E/DX2                !
 ! D68   D(8,9,10,26)          179.9987         estimate D2E/DX2                !
 ! D69   D(11,9,10,26)          -0.0059         estimate D2E/DX2                !
 ! D70   D(8,12,13,5)           -0.4536         estimate D2E/DX2                !
 ! D71   D(8,12,13,14)         179.4325         estimate D2E/DX2                !
 ! D72   D(27,12,13,5)         179.7669         estimate D2E/DX2                !
 ! D73   D(27,12,13,14)         -0.347          estimate D2E/DX2                !
 ! D74   D(5,13,14,28)         179.8802         estimate D2E/DX2                !
 ! D75   D(12,13,14,28)         -0.0059         estimate D2E/DX2                !
 --------------------------------------------------------------------------------
 Trust Radius=3.00D-01 FncErr=1.00D-07 GrdErr=1.00D-06 EigMax=2.50D+02 EigMin=1.00D-04
 Number of steps in this run=    164 maximum allowed number of steps=    168.
 GradGradGradGradGradGradGradGradGradGradGradGradGradGradGradGradGradGrad

                          Input orientation:                          
 ---------------------------------------------------------------------
 Center     Atomic      Atomic             Coordinates (Angstroms)
 Number     Number       Type             X           Y           Z
 ---------------------------------------------------------------------
      1          6           0       -2.481900    0.836100    1.027600
      2          6           0       -1.875200    0.470300   -0.334500
      3          6           0       -2.445100   -0.854800   -0.879000
      4          6           0       -1.956200   -2.068300   -0.082300
      5          6           0       -0.359400    0.424200   -0.241700
      6          6           0        0.309700   -0.802600   -0.024300
      7          6           0        1.709900   -0.818100    0.101500
      8          6           0        2.453700    0.369100    0.022900
      9          6           0        3.927800    0.337600    0.157300
     10          8           0        4.666030    1.515790    0.077500
     11          8           0        4.529180   -0.754710    0.345040
     12          6           0        1.781400    1.583100   -0.183100
     13          6           0        0.387500    1.617200   -0.310200
     14          8           0       -0.259000    2.838800   -0.502700
     15          6           0       -0.460900   -2.069400    0.045500
     16          8           0        0.129100   -3.163500    0.256800
     17          1           0       -2.157600    0.123100    1.814700
     18          1           0       -3.591100    0.831900    0.969600
     19          1           0       -2.157900    1.855500    1.326700
     20          1           0       -2.172300    1.262000   -1.057600
     21          1           0       -2.130600   -0.972400   -1.940000
     22          1           0       -3.556600   -0.827700   -0.866900
     23          1           0       -2.285000   -2.994400   -0.601600
     24          1           0       -2.409100   -2.069700    0.931400
     25          1           0        2.222100   -1.759100    0.260000
     26          1           0        5.674910    1.504890    0.168190
     27          1           0        2.337000    2.510900   -0.242500
     28          1           0        0.254300    3.711000   -0.553800
 ---------------------------------------------------------------------
                    Distance matrix (angstroms):
                    1          2          3          4          5
     1  C    0.000000
     2  C    1.535321   0.000000
     3  C    2.548651   1.541803   0.000000
     4  C    3.153376   2.552382   1.531776   0.000000
     5  C    2.507148   1.519338   2.528268   2.964411   0.000000
     6  C    3.403654   2.547604   2.884815   2.596086   1.414212
     7  C    4.600568   3.834451   4.269280   3.877766   2.437847
     8  C    5.058425   4.344807   5.129288   5.039762   2.826054
     9  C    6.487694   5.825314   6.565789   6.361385   4.306598
    10  O    7.242760   6.637054   7.556637   7.531611   5.152514
    11  O    7.221621   6.555800   7.081587   6.630859   5.062836
    12  C    4.494389   3.825176   4.928584   5.226140   2.435058
    13  C    3.260871   2.536884   3.802360   4.373532   1.409184
    14  O    3.360641   2.872314   4.308517   5.209305   2.430739
    15  C    3.672995   2.931675   2.503398   1.500752   2.512136
    16  O    4.838208   4.191820   3.639594   2.379691   3.654959
    17  H    1.110435   2.195304   2.880098   2.905410   2.748266
    18  H    1.110723   2.185348   2.752380   3.491497   3.475248
    19  H    1.110681   2.181349   3.506183   4.173987   2.782643
    20  H    2.150652   1.112623   2.141766   3.476896   2.157361
    21  H    3.492955   2.173532   1.112862   2.163900   2.823449
    22  H    2.740865   2.189831   1.111896   2.171627   3.490017
    23  H    4.167228   3.499061   2.163440   1.111505   3.940087
    24  H    2.908303   2.887759   2.180556   1.110274   3.434672
    25  H    5.426959   4.702289   4.888541   4.203685   3.417988
    26  H    8.229181   7.637227   8.520523   8.429963   6.144005
    27  H    5.257367   4.681361   5.882308   6.279037   3.409529
    28  H    4.272314   3.883941   5.314042   6.205556   3.358138
                    6          7          8          9         10
     6  C    0.000000
     7  C    1.405925   0.000000
     8  C    2.443736   1.403161   0.000000
     9  C    3.797852   2.501567   1.480549   0.000000
    10  O    4.935880   3.766474   2.492445   1.392653   0.000000
    11  O    4.235884   2.830489   2.382087   1.260970   2.290300
    12  C    2.807612   2.419064   1.402932   2.504830   2.897160
    13  C    2.437873   2.801593   2.436779   3.793370   4.297257
    14  O    3.716461   4.196968   3.705997   4.921473   5.132534
    15  C    1.484412   2.506244   3.800222   5.006679   6.256199
    16  O    2.384425   2.832657   4.235297   5.166984   6.520095
    17  H    3.213473   4.333413   4.953297   6.310711   7.177700
    18  H    4.344614   5.619315   6.135962   7.578788   8.333291
    19  H    3.870368   4.858923   5.017582   6.380224   6.945641
    20  H    3.389780   4.554317   4.833697   6.288221   6.936542
    21  H    3.107057   4.352123   5.164146   6.543621   7.513693
    22  H    3.957130   5.354803   6.192558   7.643504   8.602063
    23  H    3.445248   4.603244   5.844520   7.090630   8.313832
    24  H    3.148139   4.384221   5.515428   6.822802   7.977615
    25  H    2.157080   1.083029   2.153855   2.704831   4.090355
    26  H    5.843547   4.595871   3.418673   2.101209   1.013007
    27  H    3.890609   3.404972   2.161334   2.722814   2.552846
    28  H    4.544890   4.802180   4.042059   5.037866   4.967982
                   11         12         13         14         15
    11  O    0.000000
    12  C    3.646174   0.000000
    13  C    4.817552   1.400098   0.000000
    14  O    6.046375   2.417056   1.395466   0.000000
    15  C    5.169046   4.291960   3.799648   4.942845   0.000000
    16  O    5.017047   5.045178   4.821136   6.062596   1.260874
    17  H    6.902425   4.651723   3.636629   4.043520   3.288756
    18  H    8.297370   5.545879   4.252510   4.159111   4.366882
    19  H    7.245267   4.227503   3.035670   2.814144   4.463869
    20  H    7.137531   4.061970   2.690232   2.540655   3.904350
    21  H    7.044251   4.992096   3.962714   4.482629   2.816650
    22  H    8.176427   5.896930   4.673690   4.944697   3.457984
    23  H    7.235011   6.137121   5.337979   6.175814   2.145158
    24  H    7.086095   5.669687   4.791218   5.547337   2.140164
    25  H    2.517667   3.400126   3.884622   5.279986   2.709388
    26  H    2.539639   3.910108   5.310195   6.118880   7.102025
    27  H    3.976816   1.083066   2.145654   2.629532   5.374973
    28  H    6.247006   2.645262   2.112127   1.013322   5.855228
                   16         17         18         19         20
    16  O    0.000000
    17  H    4.296253   0.000000
    18  H    5.505560   1.808733   0.000000
    19  H    5.618311   1.799821   1.797036   0.000000
    20  H    5.158405   3.089889   2.511478   2.457099   0.000000
    21  H    3.838371   3.911345   3.722141   4.320775   2.402688
    22  H    4.505890   3.170520   2.475519   3.737353   2.513861
    23  H    2.567747   3.946333   4.337642   5.220730   4.282240
    24  H    2.844986   2.377361   3.133347   3.953044   3.887470
    25  H    2.520516   5.014134   6.403913   5.778199   5.493074
    26  H    7.249671   8.122103   9.324919   7.925780   7.946085
    27  H    6.109250   5.489544   6.279379   4.805836   4.749518
    28  H    6.923258   4.929511   5.039550   3.577411   3.484222
                   21         22         23         24         25
    21  H    0.000000
    22  H    1.790519   0.000000
    23  H    2.429740   2.526250   0.000000
    24  H    3.086514   2.468441   1.794592   0.000000
    25  H    4.940131   5.960770   4.752081   4.689911   0.000000
    26  H    8.456206   9.577743   9.175857   8.871945   4.752258
    27  H    5.913910   6.802253   7.197233   6.699657   4.301001
    28  H    5.435396   5.934710   7.170266   6.535749   5.869966
                   26         27         28
    26  H    0.000000
    27  H    3.510323   0.000000
    28  H    5.896711   2.423796   0.000000
 Stoichiometry    C12H12O4
 Framework group  C1[X(C12H12O4)]
 Deg. of freedom    78
 Full point group                 C1      NOp   1
 Largest Abelian subgroup         C1      NOp   1
 Largest concise Abelian subgroup C1      NOp   1
                         Standard orientation:                         
 ---------------------------------------------------------------------
 Center     Atomic      Atomic             Coordinates (Angstroms)
 Number     Number       Type             X           Y           Z
 ---------------------------------------------------------------------
      1          6           0       -2.789020    1.395843    1.225647
      2          6           0       -2.314777    1.000603   -0.180087
      3          6           0       -3.173233   -0.132141   -0.777667
      4          6           0       -2.936237   -1.472760   -0.075591
      5          6           0       -0.842895    0.624735   -0.154128
      6          6           0       -0.449355   -0.728661   -0.038199
      7          6           0        0.917276   -1.052154    0.027356
      8          6           0        1.897912   -0.049327   -0.012014
      9          6           0        3.333440   -0.404819    0.058057
     10          8           0        4.306656    0.590502    0.017190
     11          8           0        3.689168   -1.610664    0.155228
     12          6           0        1.498801    1.291519   -0.117197
     13          6           0        0.142308    1.631874   -0.183212
     14          8           0       -0.229597    2.973695   -0.275567
     15          6           0       -1.473627   -1.802727   -0.011194
     16          8           0       -1.128724   -3.009456    0.109848
     17          1           0       -2.604575    0.578860    1.954745
     18          1           0       -3.874014    1.633258    1.214284
     19          1           0       -2.243671    2.299797    1.570719
     20          1           0       -2.453826    1.884167   -0.841836
     21          1           0       -2.921870   -0.243076   -1.856078
     22          1           0       -4.251708    0.131575   -0.717163
     23          1           0       -3.472318   -2.270022   -0.634548
     24          1           0       -3.349765   -1.444972    0.954424
     25          1           0        1.217902   -2.089487    0.108089
     26          1           0        5.291408    0.357675    0.064488
     27          1           0        2.240167    2.080597   -0.144863
     28          1           0        0.458688    3.717098   -0.296468
 ---------------------------------------------------------------------
 Rotational constants (GHZ):           0.8470104           0.3805529           0.2746779
 Standard basis: 6-31G(d) (6D, 7F)
 There are   264 symmetry adapted cartesian basis functions of A   symmetry.
 There are   264 symmetry adapted basis functions of A   symmetry.
   264 basis functions,   496 primitive gaussians,   264 cartesian basis functions
    58 alpha electrons       58 beta electrons
       nuclear repulsion energy      1076.1511749398 Hartrees.
 NAtoms=   28 NActive=   28 NUniq=   28 SFac= 1.00D+00 NAtFMM=   60 NAOKFM=F Big=F
 Integral buffers will be    131072 words long.
 Raffenetti 2 integral format.
 Two-electron integral symmetry is turned on.
 One-electron integrals computed using PRISM.
 NBasis=   264 RedAO= T EigKep=  3.43D-04  NBF=   264
 NBsUse=   264 1.00D-06 EigRej= -1.00D+00 NBFU=   264
 ExpMin= 1.61D-01 ExpMax= 5.48D+03 ExpMxC= 8.25D+02 IAcc=3 IRadAn=         5 AccDes= 0.00D+00
 Harris functional with IExCor=  402 and IRadAn=       5 diagonalized for initial guess.
 HarFok:  IExCor=  402 AccDes= 0.00D+00 IRadAn=         5 IDoV= 1 UseB2=F ITyADJ=14
 ICtDFT=  3500011 ScaDFX=  1.000000  1.000000  1.000000  1.000000
 FoFCou: FMM=F IPFlag=           0 FMFlag=      100000 FMFlg1=           0
         NFxFlg=           0 DoJE=T BraDBF=F KetDBF=T FulRan=T
         wScrn=  0.000000 ICntrl=       500 IOpCl=  0 I1Cent=   200000004 NGrid=           0
         NMat0=    1 NMatS0=      1 NMatT0=    0 NMatD0=    1 NMtDS0=    0 NMtDT0=    0
 Petite list used in FoFCou.
 Requested convergence on RMS density matrix=1.00D-08 within 128 cycles.
 Requested convergence on MAX density matrix=1.00D-06.
 Requested convergence on             energy=1.00D-06.
 No special actions if energy rises.
 Integral accuracy reduced to 1.0D-05 until final iterations.
 Initial convergence to 1.0D-05 achieved.  Increase integral accuracy.
 SCF Done:  E(RB3LYP) =  -765.396260244     A.U. after   15 cycles
            NFock= 15  Conv=0.79D-08     -V/T= 2.0102

 **********************************************************************

            Population analysis using the SCF density.

 **********************************************************************

 Orbital symmetries:
       Occupied  (A) (A) (A) (A) (A) (A) (A) (A) (A) (A) (A) (A)
                 (A) (A) (A) (A) (A) (A) (A) (A) (A) (A) (A) (A)
                 (A) (A) (A) (A) (A) (A) (A) (A) (A) (A) (A) (A)
                 (A) (A) (A) (A) (A) (A) (A) (A) (A) (A) (A) (A)
                 (A) (A) (A) (A) (A) (A) (A) (A) (A) (A)
       Virtual   (A) (A) (A) (A) (A) (A) (A) (A) (A) (A) (A) (A)
                 (A) (A) (A) (A) (A) (A) (A) (A) (A) (A) (A) (A)
                 (A) (A) (A) (A) (A) (A) (A) (A) (A) (A) (A) (A)
                 (A) (A) (A) (A) (A) (A) (A) (A) (A) (A) (A) (A)
                 (A) (A) (A) (A) (A) (A) (A) (A) (A) (A) (A) (A)
                 (A) (A) (A) (A) (A) (A) (A) (A) (A) (A) (A) (A)
                 (A) (A) (A) (A) (A) (A) (A) (A) (A) (A) (A) (A)
                 (A) (A) (A) (A) (A) (A) (A) (A) (A) (A) (A) (A)
                 (A) (A) (A) (A) (A) (A) (A) (A) (A) (A) (A) (A)
                 (A) (A) (A) (A) (A) (A) (A) (A) (A) (A) (A) (A)
                 (A) (A) (A) (A) (A) (A) (A) (A) (A) (A) (A) (A)
                 (A) (A) (A) (A) (A) (A) (A) (A) (A) (A) (A) (A)
                 (A) (A) (A) (A) (A) (A) (A) (A) (A) (A) (A) (A)
                 (A) (A) (A) (A) (A) (A) (A) (A) (A) (A) (A) (A)
                 (A) (A) (A) (A) (A) (A) (A) (A) (A) (A) (A) (A)
                 (A) (A) (A) (A) (A) (A) (A) (A) (A) (A) (A) (A)
                 (A) (A) (A) (A) (A) (A) (A) (A) (A) (A) (A) (A)
                 (A) (A)
 The electronic state is 1-A.
 Alpha  occ. eigenvalues --  -19.19705 -19.19341 -19.13185 -19.13059 -10.33112
 Alpha  occ. eigenvalues --  -10.27549 -10.27290 -10.22376 -10.22223 -10.21469
 Alpha  occ. eigenvalues --  -10.21346 -10.20698 -10.20606 -10.19714 -10.19690
 Alpha  occ. eigenvalues --  -10.18903  -1.07440  -1.05208  -1.01128  -0.98724
 Alpha  occ. eigenvalues --   -0.87936  -0.83323  -0.77246  -0.76922  -0.74262
 Alpha  occ. eigenvalues --   -0.67375  -0.66822  -0.64690  -0.61129  -0.59383
 Alpha  occ. eigenvalues --   -0.55690  -0.51880  -0.51404  -0.49538  -0.48446
 Alpha  occ. eigenvalues --   -0.47300  -0.45670  -0.43888  -0.43867  -0.42776
 Alpha  occ. eigenvalues --   -0.42170  -0.41632  -0.41220  -0.39654  -0.38620
 Alpha  occ. eigenvalues --   -0.38181  -0.37724  -0.36938  -0.36431  -0.33985
 Alpha  occ. eigenvalues --   -0.33590  -0.32691  -0.32439  -0.30659  -0.26612
 Alpha  occ. eigenvalues --   -0.26525  -0.24346  -0.23844
 Alpha virt. eigenvalues --   -0.06955  -0.05233   0.02654   0.03263   0.04459
 Alpha virt. eigenvalues --    0.05861   0.08245   0.11093   0.11445   0.13131
 Alpha virt. eigenvalues --    0.14639   0.15359   0.16073   0.17272   0.18014
 Alpha virt. eigenvalues --    0.18764   0.19519   0.20564   0.21073   0.22450
 Alpha virt. eigenvalues --    0.22729   0.23825   0.25110   0.26424   0.27431
 Alpha virt. eigenvalues --    0.29456   0.31756   0.33756   0.34508   0.36499
 Alpha virt. eigenvalues --    0.41618   0.44583   0.46244   0.48089   0.49119
 Alpha virt. eigenvalues --    0.49390   0.50952   0.52421   0.53733   0.53942
 Alpha virt. eigenvalues --    0.54886   0.56556   0.57101   0.58458   0.58921
 Alpha virt. eigenvalues --    0.60113   0.61024   0.61871   0.62492   0.64092
 Alpha virt. eigenvalues --    0.65785   0.67751   0.68607   0.68657   0.70149
 Alpha virt. eigenvalues --    0.72434   0.74188   0.74880   0.75836   0.76827
 Alpha virt. eigenvalues --    0.78355   0.79108   0.80106   0.81364   0.82267
 Alpha virt. eigenvalues --    0.82738   0.84254   0.85497   0.85975   0.86962
 Alpha virt. eigenvalues --    0.88088   0.88445   0.88739   0.89358   0.90958
 Alpha virt. eigenvalues --    0.92118   0.93066   0.94374   0.96320   0.96560
 Alpha virt. eigenvalues --    0.98245   0.98930   1.00167   1.02766   1.02948
 Alpha virt. eigenvalues --    1.04004   1.05430   1.07247   1.09664   1.10987
 Alpha virt. eigenvalues --    1.12353   1.17098   1.17637   1.21483   1.22281
 Alpha virt. eigenvalues --    1.26498   1.28163   1.29492   1.30985   1.32926
 Alpha virt. eigenvalues --    1.34993   1.35764   1.37571   1.39271   1.40004
 Alpha virt. eigenvalues --    1.41226   1.45443   1.45556   1.46881   1.48375
 Alpha virt. eigenvalues --    1.52149   1.57440   1.63742   1.64732   1.66028
 Alpha virt. eigenvalues --    1.67939   1.69969   1.70260   1.70919   1.72262
 Alpha virt. eigenvalues --    1.73758   1.74364   1.76295   1.77249   1.78787
 Alpha virt. eigenvalues --    1.79144   1.80456   1.81895   1.83448   1.84056
 Alpha virt. eigenvalues --    1.86030   1.87261   1.87615   1.88599   1.90698
 Alpha virt. eigenvalues --    1.90835   1.93017   1.94240   1.96115   1.97804
 Alpha virt. eigenvalues --    1.99009   2.01103   2.03078   2.03615   2.06656
 Alpha virt. eigenvalues --    2.07821   2.08299   2.12041   2.15355   2.17309
 Alpha virt. eigenvalues --    2.18105   2.22567   2.23118   2.25215   2.26550
 Alpha virt. eigenvalues --    2.28222   2.29999   2.30982   2.32562   2.36100
 Alpha virt. eigenvalues --    2.36660   2.37797   2.39302   2.41045   2.44342
 Alpha virt. eigenvalues --    2.44837   2.49890   2.50468   2.52547   2.54035
 Alpha virt. eigenvalues --    2.59262   2.60638   2.61957   2.65154   2.67224
 Alpha virt. eigenvalues --    2.70122   2.72000   2.73846   2.78459   2.80155
 Alpha virt. eigenvalues --    2.82571   2.90004   2.91536   2.97242   2.98673
 Alpha virt. eigenvalues --    3.02318   3.04370   3.10224   3.23946   3.41690
 Alpha virt. eigenvalues --    3.85182   3.95937   3.97882   4.05906   4.12690
 Alpha virt. eigenvalues --    4.14552   4.17617   4.24181   4.25444   4.33475
 Alpha virt. eigenvalues --    4.40850   4.43813   4.49163   4.58373   4.60931
 Alpha virt. eigenvalues --    4.82223
          Condensed to atoms (all electrons):
               1          2          3          4          5          6
     1  C    5.127842   0.354041  -0.049780  -0.005151  -0.043540  -0.003152
     2  C    0.354041   5.060792   0.345342  -0.032777   0.343505  -0.059031
     3  C   -0.049780   0.345342   5.128192   0.289295  -0.026594  -0.000788
     4  C   -0.005151  -0.032777   0.289295   5.331666  -0.023346  -0.107820
     5  C   -0.043540   0.343505  -0.026594  -0.023346   4.992211   0.476937
     6  C   -0.003152  -0.059031  -0.000788  -0.107820   0.476937   5.165875
     7  C   -0.000195   0.008463  -0.000893   0.011086  -0.071476   0.371265
     8  C    0.000032  -0.000548  -0.000010  -0.000042  -0.025023  -0.019345
     9  C    0.000000   0.000005   0.000000  -0.000000   0.000891   0.007542
    10  O   -0.000000  -0.000000   0.000000  -0.000000   0.000003  -0.000006
    11  O   -0.000000  -0.000000   0.000000  -0.000000   0.000010   0.001489
    12  C   -0.000193   0.009386  -0.000211  -0.000013  -0.062763  -0.045483
    13  C   -0.002906  -0.062875   0.005038  -0.000530   0.458819   0.003143
    14  O   -0.002272  -0.002818   0.000217  -0.000003  -0.055123   0.002448
    15  C   -0.000529  -0.023390  -0.024752   0.328449  -0.022361   0.271912
    16  O   -0.000001   0.000112   0.003313  -0.084736   0.004218  -0.082084
    17  H    0.371630  -0.033842  -0.007040   0.003894  -0.006413   0.003687
    18  H    0.364583  -0.031733  -0.004415  -0.000236   0.005001   0.000051
    19  H    0.370317  -0.027707   0.005077  -0.000092  -0.006711  -0.000394
    20  H   -0.040172   0.376408  -0.043254   0.005057  -0.038061   0.003586
    21  H    0.005593  -0.037884   0.373823  -0.041304  -0.001313   0.001514
    22  H   -0.005776  -0.030050   0.359532  -0.028693   0.003788   0.000296
    23  H    0.000006   0.004073  -0.031211   0.356574   0.000119   0.003881
    24  H    0.004082  -0.004703  -0.035693   0.357659  -0.000101   0.001791
    25  H    0.000000  -0.000109  -0.000039   0.000612   0.004604  -0.040190
    26  H    0.000000   0.000000  -0.000000   0.000000   0.000000  -0.000001
    27  H    0.000002  -0.000143   0.000002   0.000000   0.004591   0.000458
    28  H    0.000049  -0.000283  -0.000001   0.000000   0.005234  -0.000008
               7          8          9         10         11         12
     1  C   -0.000195   0.000032   0.000000  -0.000000  -0.000000  -0.000193
     2  C    0.008463  -0.000548   0.000005  -0.000000  -0.000000   0.009386
     3  C   -0.000893  -0.000010   0.000000   0.000000   0.000000  -0.000211
     4  C    0.011086  -0.000042  -0.000000  -0.000000  -0.000000  -0.000013
     5  C   -0.071476  -0.025023   0.000891   0.000003   0.000010  -0.062763
     6  C    0.371265  -0.019345   0.007542  -0.000006   0.001489  -0.045483
     7  C    5.312579   0.437828  -0.035172   0.003894   0.000437  -0.086296
     8  C    0.437828   5.037403   0.281211  -0.077421  -0.091106   0.410113
     9  C   -0.035172   0.281211   4.438503   0.258250   0.535415  -0.027260
    10  O    0.003894  -0.077421   0.258250   8.304480  -0.092818   0.002564
    11  O    0.000437  -0.091106   0.535415  -0.092818   8.102998   0.004342
    12  C   -0.086296   0.410113  -0.027260   0.002564   0.004342   5.302578
    13  C   -0.055311   0.002603   0.002912   0.000348  -0.000072   0.425402
    14  O    0.000353   0.004358  -0.000060  -0.000000   0.000000  -0.058004
    15  C   -0.040253   0.007711  -0.000234  -0.000000  -0.000019   0.000505
    16  O    0.000877   0.001400  -0.000014  -0.000000   0.000001   0.000010
    17  H   -0.000006  -0.000022  -0.000000   0.000000   0.000000   0.000014
    18  H    0.000005  -0.000000  -0.000000   0.000000   0.000000   0.000005
    19  H    0.000005  -0.000011   0.000000  -0.000000  -0.000000  -0.000086
    20  H   -0.000138  -0.000005   0.000000   0.000000  -0.000000   0.000212
    21  H   -0.000186  -0.000004  -0.000000   0.000000   0.000000  -0.000002
    22  H    0.000025  -0.000000  -0.000000   0.000000   0.000000   0.000002
    23  H   -0.000138   0.000001  -0.000000   0.000000   0.000000  -0.000000
    24  H   -0.000248   0.000003  -0.000000   0.000000  -0.000000   0.000000
    25  H    0.348820  -0.036997  -0.006993   0.000196   0.013100   0.005221
    26  H   -0.000087   0.007083  -0.005964   0.220332   0.005951  -0.000574
    27  H    0.004911  -0.029702  -0.009688   0.009322   0.000127   0.343730
    28  H    0.000003   0.000541  -0.000015  -0.000002  -0.000000  -0.002610
              13         14         15         16         17         18
     1  C   -0.002906  -0.002272  -0.000529  -0.000001   0.371630   0.364583
     2  C   -0.062875  -0.002818  -0.023390   0.000112  -0.033842  -0.031733
     3  C    0.005038   0.000217  -0.024752   0.003313  -0.007040  -0.004415
     4  C   -0.000530  -0.000003   0.328449  -0.084736   0.003894  -0.000236
     5  C    0.458819  -0.055123  -0.022361   0.004218  -0.006413   0.005001
     6  C    0.003143   0.002448   0.271912  -0.082084   0.003687   0.000051
     7  C   -0.055311   0.000353  -0.040253   0.000877  -0.000006   0.000005
     8  C    0.002603   0.004358   0.007711   0.001400  -0.000022  -0.000000
     9  C    0.002912  -0.000060  -0.000234  -0.000014  -0.000000  -0.000000
    10  O    0.000348  -0.000000  -0.000000  -0.000000   0.000000   0.000000
    11  O   -0.000072   0.000000  -0.000019   0.000001   0.000000   0.000000
    12  C    0.425402  -0.058004   0.000505   0.000010   0.000014   0.000005
    13  C    4.696872   0.262073   0.006310  -0.000084  -0.000330   0.000035
    14  O    0.262073   8.289514  -0.000026   0.000000   0.000013  -0.000001
    15  C    0.006310  -0.000026   4.613301   0.529724  -0.000743   0.000001
    16  O   -0.000084   0.000000   0.529724   8.091242  -0.000022  -0.000000
    17  H   -0.000330   0.000013  -0.000743  -0.000022   0.573339  -0.028522
    18  H    0.000035  -0.000001   0.000001  -0.000000  -0.028522   0.575051
    19  H    0.002487   0.005585   0.000049   0.000000  -0.028525  -0.027553
    20  H   -0.009283   0.006959   0.000100   0.000001   0.005254  -0.002151
    21  H   -0.000009   0.000000  -0.002961   0.000063  -0.000052   0.000010
    22  H   -0.000131  -0.000002   0.003182  -0.000075  -0.000146   0.004695
    23  H    0.000014   0.000000  -0.022026   0.001679  -0.000025  -0.000023
    24  H   -0.000011  -0.000000  -0.024032  -0.000697   0.001994   0.000113
    25  H    0.000252   0.000002  -0.006305   0.015066   0.000003  -0.000000
    26  H    0.000002  -0.000000  -0.000000   0.000000  -0.000000  -0.000000
    27  H   -0.041625  -0.004474   0.000007   0.000000   0.000000  -0.000000
    28  H   -0.024978   0.236818   0.000001  -0.000000  -0.000001  -0.000001
              19         20         21         22         23         24
     1  C    0.370317  -0.040172   0.005593  -0.005776   0.000006   0.004082
     2  C   -0.027707   0.376408  -0.037884  -0.030050   0.004073  -0.004703
     3  C    0.005077  -0.043254   0.373823   0.359532  -0.031211  -0.035693
     4  C   -0.000092   0.005057  -0.041304  -0.028693   0.356574   0.357659
     5  C   -0.006711  -0.038061  -0.001313   0.003788   0.000119  -0.000101
     6  C   -0.000394   0.003586   0.001514   0.000296   0.003881   0.001791
     7  C    0.000005  -0.000138  -0.000186   0.000025  -0.000138  -0.000248
     8  C   -0.000011  -0.000005  -0.000004  -0.000000   0.000001   0.000003
     9  C    0.000000   0.000000  -0.000000  -0.000000  -0.000000  -0.000000
    10  O   -0.000000   0.000000   0.000000   0.000000   0.000000   0.000000
    11  O   -0.000000  -0.000000   0.000000   0.000000   0.000000  -0.000000
    12  C   -0.000086   0.000212  -0.000002   0.000002  -0.000000   0.000000
    13  C    0.002487  -0.009283  -0.000009  -0.000131   0.000014  -0.000011
    14  O    0.005585   0.006959   0.000000  -0.000002   0.000000  -0.000000
    15  C    0.000049   0.000100  -0.002961   0.003182  -0.022026  -0.024032
    16  O    0.000000   0.000001   0.000063  -0.000075   0.001679  -0.000697
    17  H   -0.028525   0.005254  -0.000052  -0.000146  -0.000025   0.001994
    18  H   -0.027553  -0.002151   0.000010   0.004695  -0.000023   0.000113
    19  H    0.549727  -0.004980  -0.000161   0.000009   0.000001  -0.000094
    20  H   -0.004980   0.592794  -0.004737  -0.002202  -0.000124  -0.000032
    21  H   -0.000161  -0.004737   0.593824  -0.032402  -0.004507   0.005172
    22  H    0.000009  -0.002202  -0.032402   0.597499  -0.002034  -0.005353
    23  H    0.000001  -0.000124  -0.004507  -0.002034   0.541467  -0.022400
    24  H   -0.000094  -0.000032   0.005172  -0.005353  -0.022400   0.547369
    25  H    0.000000   0.000002  -0.000003   0.000000  -0.000011  -0.000014
    26  H    0.000000   0.000000  -0.000000   0.000000  -0.000000  -0.000000
    27  H    0.000003  -0.000002   0.000000  -0.000000   0.000000  -0.000000
    28  H   -0.000114  -0.000217  -0.000000  -0.000000   0.000000   0.000000
              25         26         27         28
     1  C    0.000000   0.000000   0.000002   0.000049
     2  C   -0.000109   0.000000  -0.000143  -0.000283
     3  C   -0.000039  -0.000000   0.000002  -0.000001
     4  C    0.000612   0.000000   0.000000   0.000000
     5  C    0.004604   0.000000   0.004591   0.005234
     6  C   -0.040190  -0.000001   0.000458  -0.000008
     7  C    0.348820  -0.000087   0.004911   0.000003
     8  C   -0.036997   0.007083  -0.029702   0.000541
     9  C   -0.006993  -0.005964  -0.009688  -0.000015
    10  O    0.000196   0.220332   0.009322  -0.000002
    11  O    0.013100   0.005951   0.000127  -0.000000
    12  C    0.005221  -0.000574   0.343730  -0.002610
    13  C    0.000252   0.000002  -0.041625  -0.024978
    14  O    0.000002  -0.000000  -0.004474   0.236818
    15  C   -0.006305  -0.000000   0.000007   0.000001
    16  O    0.015066   0.000000   0.000000  -0.000000
    17  H    0.000003  -0.000000   0.000000  -0.000001
    18  H   -0.000000  -0.000000  -0.000000  -0.000001
    19  H    0.000000   0.000000   0.000003  -0.000114
    20  H    0.000002   0.000000  -0.000002  -0.000217
    21  H   -0.000003  -0.000000   0.000000  -0.000000
    22  H    0.000000   0.000000  -0.000000  -0.000000
    23  H   -0.000011  -0.000000   0.000000   0.000000
    24  H   -0.000014  -0.000000  -0.000000   0.000000
    25  H    0.506107  -0.000009  -0.000144  -0.000000
    26  H   -0.000009   0.347380  -0.000316   0.000000
    27  H   -0.000144  -0.000316   0.567863   0.004958
    28  H   -0.000000   0.000000   0.004958   0.361546
 Mulliken charges:
               1
     1  C   -0.444511
     2  C   -0.154235
     3  C   -0.285150
     4  C   -0.359550
     5  C    0.082893
     6  C    0.042428
     7  C   -0.210152
     8  C    0.089950
     9  C    0.560672
    10  O   -0.629142
    11  O   -0.479854
    12  C   -0.220588
    13  C    0.331835
    14  O   -0.685558
    15  C    0.406380
    16  O   -0.479993
    17  H    0.145861
    18  H    0.145086
    19  H    0.163169
    20  H    0.154984
    21  H    0.145526
    22  H    0.137835
    23  H    0.174684
    24  H    0.175197
    25  H    0.196829
    26  H    0.426202
    27  H    0.150121
    28  H    0.419081
 Sum of Mulliken charges =  -0.00000
 Mulliken charges with hydrogens summed into heavy atoms:
               1
     1  C    0.009605
     2  C    0.000749
     3  C   -0.001789
     4  C   -0.009668
     5  C    0.082893
     6  C    0.042428
     7  C   -0.013323
     8  C    0.089950
     9  C    0.560672
    10  O   -0.202941
    11  O   -0.479854
    12  C   -0.070468
    13  C    0.331835
    14  O   -0.266477
    15  C    0.406380
    16  O   -0.479993
 Electronic spatial extent (au):  <R**2>=           3868.8123
 Charge=             -0.0000 electrons
 Dipole moment (field-independent basis, Debye):
    X=             -0.4260    Y=              5.9653    Z=             -0.3840  Tot=              5.9928
 Quadrupole moment (field-independent basis, Debye-Ang):
   XX=            -76.8062   YY=            -98.3195   ZZ=            -91.6666
   XY=             10.1005   XZ=             -0.2433   YZ=              0.6745
 Traceless Quadrupole moment (field-independent basis, Debye-Ang):
   XX=             12.1246   YY=             -9.3887   ZZ=             -2.7359
   XY=             10.1005   XZ=             -0.2433   YZ=              0.6745
 Octapole moment (field-independent basis, Debye-Ang**2):
  XXX=             80.2304  YYY=             89.8367  ZZZ=             -0.1454  XYY=             18.2145
  XXY=             30.1147  XXZ=             -1.2328  XZZ=              6.0264  YZZ=             -3.3397
  YYZ=             -6.0591  XYZ=             -0.8365
 Hexadecapole moment (field-independent basis, Debye-Ang**3):
 XXXX=          -2555.1702 YYYY=          -1338.3909 ZZZZ=           -222.0203 XXXY=            150.6638
 XXXZ=              8.2092 YYYX=             53.9643 YYYZ=             -8.3287 ZZZX=              5.1635
 ZZZY=             -7.0370 XXYY=           -839.7997 XXZZ=           -577.7650 YYZZ=           -265.8922
 XXYZ=              7.0477 YYXZ=             -2.1227 ZZXY=              4.4051
 N-N= 1.076151174940D+03 E-N=-3.937036323935D+03  KE= 7.576805447570D+02
 Calling FoFJK, ICntrl=      2127 FMM=F ISym2X=0 I1Cent= 0 IOpClX= 0 NMat=1 NMatS=1 NMatT=0.
 ***** Axes restored to original set *****
 -------------------------------------------------------------------
 Center     Atomic                   Forces (Hartrees/Bohr)
 Number     Number              X              Y              Z
 -------------------------------------------------------------------
      1        6          -0.003014302    0.006706182    0.009553701
      2        6          -0.007317609    0.004656429   -0.011726245
      3        6          -0.005230726    0.000676102   -0.006297491
      4        6          -0.014234805    0.001874684   -0.008644851
      5        6          -0.011811639    0.007908906   -0.001263406
      6        6           0.006699571    0.015456511   -0.004232425
      7        6           0.004706222   -0.002894206    0.000661570
      8        6          -0.005118424    0.017194075   -0.002508947
      9        6           0.076527184   -0.060490009    0.014321946
     10        8          -0.015521555    0.009598009   -0.002553560
     11        8          -0.029149061    0.052358017   -0.009055244
     12        6          -0.006527958   -0.001536434   -0.000344853
     13        6           0.019287583    0.025868501   -0.001117371
     14        8          -0.007493363    0.007232738   -0.001251657
     15        6           0.031684644   -0.057957020    0.016316543
     16        8          -0.018920489    0.043274040   -0.009297584
     17        1          -0.004410050    0.006952251   -0.005377981
     18        1           0.008971079   -0.000351819    0.001646159
     19        1          -0.003023083   -0.009821775   -0.001145173
     20        1           0.005501828   -0.004694045    0.007676872
     21        1          -0.003372576    0.001059910    0.008336993
     22        1           0.009561585    0.001709847   -0.001462164
     23        1           0.006242082    0.005499068    0.009832185
     24        1           0.004689684   -0.001764763   -0.006139696
     25        1          -0.000384360   -0.000583979    0.000087502
     26        1          -0.038510774   -0.023872905   -0.000471550
     27        1           0.002582360    0.000935566   -0.000070226
     28        1          -0.002413046   -0.044993880    0.004526954
 -------------------------------------------------------------------
 Cartesian Forces:  Max     0.076527184 RMS     0.018376097

 GradGradGradGradGradGradGradGradGradGradGradGradGradGradGradGradGradGrad
 Berny optimization.
 FormGI is forming the generalized inverse of G from B-inverse, IUseBI=4.
 Internal  Forces:  Max     0.060604436 RMS     0.011268693
 Search for a local minimum.
 Step number   1 out of a maximum of  164
 All quantities printed in internal units (Hartrees-Bohrs-Radians)
 Mixed Optimization -- RFO/linear search
 Second derivative matrix not updated -- first step.
 ITU=  0
     Eigenvalues ---    0.00299   0.00545   0.00679   0.00845   0.01023
     Eigenvalues ---    0.01274   0.01280   0.01317   0.01679   0.01739
     Eigenvalues ---    0.01752   0.01789   0.01979   0.02022   0.02028
     Eigenvalues ---    0.02053   0.02070   0.03209   0.03573   0.04616
     Eigenvalues ---    0.04715   0.05239   0.05493   0.05648   0.05684
     Eigenvalues ---    0.06031   0.08170   0.08280   0.09201   0.11328
     Eigenvalues ---    0.14829   0.16000   0.16000   0.16000   0.16000
     Eigenvalues ---    0.16000   0.16000   0.16000   0.16966   0.20497
     Eigenvalues ---    0.23483   0.23521   0.24699   0.24973   0.24984
     Eigenvalues ---    0.25000   0.25000   0.25000   0.25000   0.27345
     Eigenvalues ---    0.28381   0.28937   0.29730   0.31784   0.32299
     Eigenvalues ---    0.32324   0.32400   0.32441   0.32524   0.32528
     Eigenvalues ---    0.32554   0.32571   0.33329   0.34507   0.35626
     Eigenvalues ---    0.35631   0.39313   0.41073   0.43622   0.44579
     Eigenvalues ---    0.44945   0.45374   0.45421   0.45473   0.46380
     Eigenvalues ---    0.46860   0.79312   0.79345
 RFO step:  Lambda=-4.99784365D-02 EMin= 2.98716830D-03
 Linear search not attempted -- first point.
 Maximum step size (   0.300) exceeded in Quadratic search.
    -- Step size scaled by   0.749
 Iteration  1 RMS(Cart)=  0.04343881 RMS(Int)=  0.00139216
 Iteration  2 RMS(Cart)=  0.00133809 RMS(Int)=  0.00005719
 Iteration  3 RMS(Cart)=  0.00000365 RMS(Int)=  0.00005715
 Iteration  4 RMS(Cart)=  0.00000000 RMS(Int)=  0.00005715
 Variable       Old X    -DE/DX   Delta X   Delta X   Delta X     New X
                                 (Linear)    (Quad)   (Total)
    R1        2.90134   0.00556   0.00000   0.01228   0.01228   2.91361
    R2        2.09842  -0.00957   0.00000  -0.01909  -0.01909   2.07933
    R3        2.09896  -0.00904   0.00000  -0.01806  -0.01806   2.08090
    R4        2.09888  -0.01020   0.00000  -0.02038  -0.02038   2.07851
    R5        2.91359  -0.00102   0.00000  -0.00209  -0.00211   2.91148
    R6        2.87113  -0.00195   0.00000  -0.00306  -0.00307   2.86806
    R7        2.10255  -0.00980   0.00000  -0.01967  -0.01967   2.08288
    R8        2.89464   0.00458   0.00000   0.00995   0.00992   2.90455
    R9        2.10300  -0.00901   0.00000  -0.01811  -0.01811   2.08489
   R10        2.10118  -0.00953   0.00000  -0.01910  -0.01910   2.08208
   R11        2.83601   0.00798   0.00000   0.01503   0.01504   2.85105
   R12        2.10044  -0.01102   0.00000  -0.02206  -0.02206   2.07838
   R13        2.09811  -0.00752   0.00000  -0.01499  -0.01499   2.08312
   R14        2.67247   0.00018   0.00000   0.00068   0.00071   2.67318
   R15        2.66297  -0.00859   0.00000  -0.01302  -0.01301   2.64996
   R16        2.65681  -0.00632   0.00000  -0.00956  -0.00956   2.64726
   R17        2.80513   0.00138   0.00000   0.00212   0.00215   2.80728
   R18        2.65159  -0.00983   0.00000  -0.01478  -0.01479   2.63680
   R19        2.04663   0.00034   0.00000   0.00062   0.00062   2.04725
   R20        2.79783  -0.00594   0.00000  -0.01128  -0.01128   2.78656
   R21        2.65116  -0.00016   0.00000  -0.00031  -0.00031   2.65084
   R22        2.63173  -0.04055   0.00000  -0.05859  -0.05859   2.57314
   R23        2.38289  -0.06060   0.00000  -0.05387  -0.05387   2.32902
   R24        1.91431  -0.03814   0.00000  -0.05663  -0.05663   1.85768
   R25        2.64580  -0.00490   0.00000  -0.00725  -0.00725   2.63855
   R26        2.04670   0.00213   0.00000   0.00393   0.00393   2.05063
   R27        2.63705  -0.02892   0.00000  -0.04218  -0.04218   2.59487
   R28        1.91490  -0.04018   0.00000  -0.05972  -0.05972   1.85518
   R29        2.38271  -0.04796   0.00000  -0.04261  -0.04261   2.34009
    A1        1.93956   0.00254   0.00000   0.00865   0.00864   1.94820
    A2        1.92558   0.00067   0.00000   0.00227   0.00226   1.92785
    A3        1.92017   0.00150   0.00000   0.00590   0.00588   1.92605
    A4        1.90311  -0.00206   0.00000  -0.00836  -0.00836   1.89475
    A5        1.88940  -0.00202   0.00000  -0.00701  -0.00704   1.88237
    A6        1.88478  -0.00080   0.00000  -0.00204  -0.00205   1.88272
    A7        1.95198   0.00285   0.00000   0.01061   0.01067   1.96265
    A8        1.92547   0.00079   0.00000   0.00336   0.00339   1.92886
    A9        1.87709  -0.00192   0.00000  -0.00650  -0.00660   1.87049
   A10        1.94364  -0.00359   0.00000  -0.01236  -0.01241   1.93123
   A11        1.85806   0.00202   0.00000   0.01276   0.01270   1.87076
   A12        1.90465  -0.00012   0.00000  -0.00790  -0.00784   1.89681
   A13        1.95974   0.00009   0.00000   0.00106   0.00109   1.96083
   A14        1.89976   0.00100   0.00000   0.00102   0.00099   1.90075
   A15        1.92273  -0.00211   0.00000  -0.00710  -0.00712   1.91561
   A16        1.89860  -0.00118   0.00000  -0.00255  -0.00257   1.89602
   A17        1.90997   0.00270   0.00000   0.01135   0.01137   1.92134
   A18        1.87073  -0.00053   0.00000  -0.00406  -0.00406   1.86667
   A19        1.94216   0.00426   0.00000   0.01471   0.01468   1.95684
   A20        1.89933   0.00425   0.00000   0.02395   0.02400   1.92333
   A21        1.92376  -0.00023   0.00000   0.00263   0.00272   1.92648
   A22        1.91125  -0.00533   0.00000  -0.01992  -0.02019   1.89106
   A23        1.90571  -0.00204   0.00000  -0.01261  -0.01272   1.89299
   A24        1.88057  -0.00112   0.00000  -0.00964  -0.00994   1.87063
   A25        2.10335   0.00510   0.00000   0.01487   0.01486   2.11821
   A26        2.09455   0.00126   0.00000   0.00159   0.00158   2.09613
   A27        2.08415  -0.00636   0.00000  -0.01628  -0.01627   2.06789
   A28        2.08808   0.00672   0.00000   0.01727   0.01726   2.10533
   A29        2.09662   0.00255   0.00000   0.00640   0.00644   2.10306
   A30        2.09832  -0.00926   0.00000  -0.02359  -0.02362   2.07470
   A31        2.11016  -0.00480   0.00000  -0.01287  -0.01288   2.09728
   A32        2.08711   0.00177   0.00000   0.00419   0.00419   2.09130
   A33        2.08591   0.00303   0.00000   0.00869   0.00869   2.09460
   A34        2.09982  -0.00642   0.00000  -0.01621  -0.01620   2.08362
   A35        2.07870   0.00330   0.00000   0.00858   0.00857   2.08727
   A36        2.10466   0.00312   0.00000   0.00763   0.00763   2.11229
   A37        2.09969  -0.03624   0.00000  -0.09052  -0.09052   2.00917
   A38        2.10225   0.01778   0.00000   0.04442   0.04442   2.14667
   A39        2.08125   0.01846   0.00000   0.04611   0.04611   2.12735
   A40        2.11028  -0.04684   0.00000  -0.16715  -0.16715   1.94313
   A41        2.10772  -0.00285   0.00000  -0.00736  -0.00737   2.10035
   A42        2.09844  -0.00034   0.00000  -0.00262  -0.00262   2.09583
   A43        2.07702   0.00319   0.00000   0.00998   0.00998   2.08700
   A44        2.09745   0.00399   0.00000   0.01070   0.01071   2.10816
   A45        2.09701  -0.01684   0.00000  -0.04243  -0.04244   2.05457
   A46        2.08872   0.01285   0.00000   0.03173   0.03173   2.12045
   A47        2.12442  -0.04000   0.00000  -0.14276  -0.14276   1.98165
   A48        2.10902  -0.00840   0.00000  -0.02247  -0.02247   2.08655
   A49        2.07275   0.00884   0.00000   0.02298   0.02294   2.09569
   A50        2.10074  -0.00039   0.00000  -0.00005  -0.00009   2.10065
    D1        1.18268  -0.00197   0.00000  -0.01134  -0.01133   1.17136
    D2       -0.99085   0.00005   0.00000  -0.00547  -0.00547  -0.99632
    D3       -3.06643   0.00089   0.00000   0.00605   0.00601  -3.06042
    D4       -0.93045  -0.00151   0.00000  -0.00808  -0.00806  -0.93851
    D5       -3.10398   0.00050   0.00000  -0.00222  -0.00220  -3.10618
    D6        1.10363   0.00135   0.00000   0.00931   0.00927   1.11290
    D7       -3.00818  -0.00188   0.00000  -0.01068  -0.01065  -3.01883
    D8        1.10147   0.00014   0.00000  -0.00481  -0.00479   1.09668
    D9       -0.97411   0.00098   0.00000   0.00671   0.00668  -0.96742
   D10       -1.22931  -0.00171   0.00000  -0.00851  -0.00849  -1.23780
   D11        2.95072  -0.00096   0.00000  -0.00667  -0.00662   2.94410
   D12        0.90426   0.00031   0.00000   0.00171   0.00175   0.90600
   D13        0.93406  -0.00125   0.00000  -0.00548  -0.00549   0.92857
   D14       -1.16909  -0.00050   0.00000  -0.00364  -0.00363  -1.17272
   D15        3.06763   0.00077   0.00000   0.00474   0.00474   3.07237
   D16        3.00831  -0.00215   0.00000  -0.01408  -0.01417   2.99414
   D17        0.90516  -0.00140   0.00000  -0.01224  -0.01231   0.89285
   D18       -1.14131  -0.00012   0.00000  -0.00386  -0.00394  -1.14525
   D19        1.67114   0.00096   0.00000   0.00788   0.00787   1.67901
   D20       -1.41896   0.00112   0.00000   0.00425   0.00421  -1.41475
   D21       -0.50716  -0.00071   0.00000   0.00062   0.00058  -0.50658
   D22        2.68591  -0.00055   0.00000  -0.00301  -0.00307   2.68284
   D23       -2.55334  -0.00099   0.00000  -0.00283  -0.00288  -2.55622
   D24        0.63974  -0.00083   0.00000  -0.00646  -0.00654   0.63320
   D25       -0.90093  -0.00139   0.00000  -0.00160  -0.00150  -0.90244
   D26       -3.00848  -0.00023   0.00000  -0.00179  -0.00182  -3.01030
   D27        1.21597  -0.00128   0.00000  -0.00593  -0.00589   1.21007
   D28        1.20289  -0.00088   0.00000  -0.00138  -0.00131   1.20158
   D29       -0.90465   0.00028   0.00000  -0.00156  -0.00163  -0.90629
   D30       -2.96339  -0.00077   0.00000  -0.00571  -0.00570  -2.96909
   D31       -3.04172  -0.00068   0.00000  -0.00134  -0.00129  -3.04301
   D32        1.13392   0.00048   0.00000  -0.00153  -0.00161   1.13231
   D33       -0.92482  -0.00057   0.00000  -0.00567  -0.00568  -0.93050
   D34        0.44878  -0.00169   0.00000  -0.01121  -0.01114   0.43763
   D35       -2.73209  -0.00027   0.00000   0.00231   0.00242  -2.72967
   D36        2.54930   0.00283   0.00000   0.01497   0.01476   2.56406
   D37       -0.63157   0.00425   0.00000   0.02849   0.02832  -0.60325
   D38       -1.67864  -0.00280   0.00000  -0.01559  -0.01544  -1.69408
   D39        1.42368  -0.00138   0.00000  -0.00207  -0.00188   1.42180
   D40       -3.10598   0.00026   0.00000  -0.00127  -0.00126  -3.10724
   D41        0.05521  -0.00006   0.00000  -0.00552  -0.00561   0.04960
   D42       -0.01557   0.00032   0.00000   0.00285   0.00285  -0.01272
   D43       -3.13756   0.00001   0.00000  -0.00139  -0.00150  -3.13907
   D44        3.10665   0.00001   0.00000   0.00283   0.00281   3.10946
   D45       -0.03294  -0.00009   0.00000   0.00147   0.00148  -0.03147
   D46        0.01597  -0.00017   0.00000  -0.00168  -0.00165   0.01433
   D47       -3.12362  -0.00027   0.00000  -0.00303  -0.00298  -3.12660
   D48        0.00720  -0.00024   0.00000  -0.00198  -0.00199   0.00520
   D49       -3.13303  -0.00023   0.00000  -0.00233  -0.00234  -3.13537
   D50        3.12917   0.00020   0.00000   0.00261   0.00262   3.13179
   D51       -0.01105   0.00021   0.00000   0.00226   0.00227  -0.00878
   D52       -0.02345   0.00183   0.00000   0.01350   0.01343  -0.01002
   D53       -3.12514   0.00019   0.00000  -0.00074  -0.00069  -3.12583
   D54        3.13786   0.00134   0.00000   0.00877   0.00869  -3.13663
   D55        0.03617  -0.00031   0.00000  -0.00548  -0.00542   0.03075
   D56        3.14150   0.00005   0.00000   0.00018   0.00018  -3.14150
   D57        0.00095   0.00005   0.00000   0.00002   0.00002   0.00097
   D58       -0.00145   0.00004   0.00000   0.00052   0.00052  -0.00093
   D59        3.14118   0.00003   0.00000   0.00037   0.00036   3.14154
   D60        3.14011   0.00000   0.00000  -0.00001  -0.00002   3.14009
   D61       -0.00140   0.00002   0.00000   0.00021   0.00021  -0.00119
   D62       -0.00254   0.00001   0.00000   0.00015   0.00015  -0.00239
   D63        3.13913   0.00002   0.00000   0.00037   0.00037   3.13950
   D64       -0.00063   0.00013   0.00000   0.00124   0.00124   0.00061
   D65        3.13707   0.00010   0.00000   0.00160   0.00161   3.13868
   D66       -3.14117   0.00014   0.00000   0.00109   0.00109  -3.14009
   D67       -0.00348   0.00011   0.00000   0.00146   0.00146  -0.00201
   D68        3.14157   0.00001   0.00000   0.00013   0.00013  -3.14149
   D69       -0.00010  -0.00001   0.00000  -0.00009  -0.00009  -0.00019
   D70       -0.00792  -0.00013   0.00000  -0.00054  -0.00054  -0.00846
   D71        3.13169  -0.00006   0.00000   0.00072   0.00076   3.13245
   D72        3.13752  -0.00010   0.00000  -0.00088  -0.00089   3.13664
   D73       -0.00606  -0.00003   0.00000   0.00039   0.00041  -0.00565
   D74        3.13950   0.00024   0.00000   0.00283   0.00283  -3.14086
   D75       -0.00010   0.00015   0.00000   0.00151   0.00151   0.00141
         Item               Value     Threshold  Converged?
 Maximum Force            0.060604     0.000450     NO 
 RMS     Force            0.011269     0.000300     NO 
 Maximum Displacement     0.292711     0.001800     NO 
 RMS     Displacement     0.043948     0.001200     NO 
 Predicted change in Energy=-2.574425D-02
 GradGradGradGradGradGradGradGradGradGradGradGradGradGradGradGradGradGrad

                          Input orientation:                          
 ---------------------------------------------------------------------
 Center     Atomic      Atomic             Coordinates (Angstroms)
 Number     Number       Type             X           Y           Z
 ---------------------------------------------------------------------
      1          6           0       -2.486451    0.860292    1.030616
      2          6           0       -1.873195    0.484678   -0.333215
      3          6           0       -2.430770   -0.841870   -0.883761
      4          6           0       -1.931149   -2.059855   -0.090457
      5          6           0       -0.359362    0.430962   -0.239028
      6          6           0        0.322204   -0.790175   -0.026074
      7          6           0        1.717204   -0.816425    0.099296
      8          6           0        2.450619    0.368036    0.021120
      9          6           0        3.918310    0.320400    0.155317
     10          8           0        4.546474    1.525012    0.063637
     11          8           0        4.542009   -0.726950    0.337052
     12          6           0        1.782309    1.584445   -0.182506
     13          6           0        0.391804    1.613216   -0.305859
     14          8           0       -0.287321    2.791577   -0.495025
     15          6           0       -0.428935   -2.069628    0.049082
     16          8           0        0.168500   -3.135111    0.252218
     17          1           0       -2.181060    0.157172    1.819979
     18          1           0       -3.585963    0.863654    0.970387
     19          1           0       -2.161811    1.867101    1.331816
     20          1           0       -2.154651    1.277009   -1.045864
     21          1           0       -2.116087   -0.952862   -1.935369
     22          1           0       -3.532180   -0.813313   -0.879323
     23          1           0       -2.238565   -2.990363   -0.589734
     24          1           0       -2.375478   -2.069494    0.918322
     25          1           0        2.226382   -1.759683    0.256363
     26          1           0        5.520014    1.428952    0.160400
     27          1           0        2.344563    2.510668   -0.241855
     28          1           0        0.297304    3.579326   -0.533005
 ---------------------------------------------------------------------
                    Distance matrix (angstroms):
                    1          2          3          4          5
     1  C    0.000000
     2  C    1.541819   0.000000
     3  C    2.562284   1.540688   0.000000
     4  C    3.176858   2.556744   1.537024   0.000000
     5  C    2.514125   1.517711   2.515256   2.949027   0.000000
     6  C    3.424789   2.557218   2.883950   2.587245   1.414588
     7  C    4.620546   3.843293   4.262950   3.859094   2.445928
     8  C    5.063206   4.339877   5.109858   5.010689   2.822700
     9  C    6.486801   5.814394   6.537688   6.319983   4.297233
    10  O    7.130143   6.515516   7.428435   7.405041   5.035453
    11  O    7.238758   6.562937   7.079777   6.622777   5.069129
    12  C    4.496484   3.820328   4.912107   5.203765   2.433202
    13  C    3.261505   2.530725   3.785280   4.351318   1.402299
    14  O    3.300548   2.804098   4.236441   5.138311   2.375548
    15  C    3.712305   2.959141   2.526842   1.508713   2.518094
    16  O    4.859826   4.196918   3.647686   2.383722   3.638247
    17  H    1.100334   2.199611   2.893208   2.937249   2.762798
    18  H    1.101166   2.185538   2.771489   3.522883   3.472875
    19  H    1.099898   2.183282   3.509935   4.182947   2.789061
    20  H    2.143715   1.102213   2.142934   3.478134   2.142391
    21  H    3.495964   2.166199   1.103278   2.159476   2.806889
    22  H    2.746338   2.176062   1.101788   2.177033   3.467704
    23  H    4.185036   3.503600   2.177021   1.099830   3.919167
    24  H    2.934037   2.888326   2.181197   1.102341   3.414156
    25  H    5.447433   4.710763   4.881734   4.182756   3.424969
    26  H    8.073669   7.469595   8.334379   8.231315   5.976838
    27  H    5.261332   4.680007   5.869869   6.260536   3.411216
    28  H    4.193727   3.785212   5.206956   6.079656   3.229524
                    6          7          8          9         10
     6  C    0.000000
     7  C    1.400868   0.000000
     8  C    2.423599   1.395334   0.000000
     9  C    3.768057   2.477978   1.474582   0.000000
    10  O    4.817946   3.672652   2.394370   1.361649   0.000000
    11  O    4.235872   2.836205   2.381747   1.232465   2.268504
    12  C    2.791988   2.418228   1.402767   2.504882   2.775740
    13  C    2.420623   2.797140   2.428191   3.784217   4.172001
    14  O    3.663385   4.170014   3.692733   4.921076   5.028108
    15  C    1.485550   2.485750   3.772906   4.962061   6.138106
    16  O    2.366388   2.792521   4.187304   5.100100   6.396794
    17  H    3.251417   4.370939   4.973209   6.324560   7.086286
    18  H    4.359112   5.630724   6.130830   7.567931   8.209515
    19  H    3.882694   4.875158   5.023905   6.383126   6.835670
    20  H    3.383494   4.548090   4.813855   6.264087   6.796880
    21  H    3.101151   4.341958   5.140762   6.511997   7.384147
    22  H    3.947765   5.339825   6.164436   7.606943   8.462954
    23  H    3.422876   4.566057   5.800038   7.030175   8.176324
    24  H    3.131458   4.357870   5.480670   6.775362   7.846298
    25  H    2.155367   1.083360   2.152397   2.683203   4.026065
    26  H    5.654779   4.416652   3.250558   1.947914   0.983041
    27  H    3.877120   3.402867   2.161313   2.726114   2.431718
    28  H    4.398879   4.662461   3.905919   4.919966   4.757271
                   11         12         13         14         15
    11  O    0.000000
    12  C    3.637092   0.000000
    13  C    4.807693   1.396262   0.000000
    14  O    6.032812   2.416237   1.373146   0.000000
    15  C    5.157130   4.277322   3.789847   4.893611   0.000000
    16  O    4.993397   5.006753   4.786223   5.990975   1.238324
    17  H    6.941211   4.664263   3.641275   3.985673   3.341356
    18  H    8.306327   5.537783   4.244205   4.092110   4.406787
    19  H    7.256711   4.234282   3.044238   2.775917   4.488440
    20  H    7.125557   4.042222   2.673028   2.466630   3.921349
    21  H    7.038834   4.970709   3.940759   4.409060   2.834025
    22  H    8.165755   5.871847   4.649146   4.865391   3.474247
    23  H    7.208201   6.104272   5.309649   6.103045   2.128521
    24  H    7.070497   5.643605   4.766427   5.476127   2.131808
    25  H    2.536765   3.401911   3.880492   5.253309   2.681368
    26  H    2.373945   3.756621   5.152658   6.000955   6.902351
    27  H    3.955511   1.085145   2.150066   2.658913   5.362466
    28  H    6.108889   2.511501   1.981442   0.981721   5.725114
                   16         17         18         19         20
    16  O    0.000000
    17  H    4.337907   0.000000
    18  H    5.531897   1.787366   0.000000
    19  H    5.622989   1.778351   1.779254   0.000000
    20  H    5.152557   3.076977   2.506947   2.449820   0.000000
    21  H    3.842796   3.916509   3.728765   4.316107   2.401048
    22  H    4.512888   3.170741   2.497307   3.735193   2.508937
    23  H    2.554172   3.964467   4.370688   5.224289   4.292500
    24  H    2.837439   2.410151   3.173538   3.964014   3.886627
    25  H    2.475216   5.054184   6.416781   5.793651   5.487325
    26  H    7.034046   7.979860   9.159392   7.782970   7.770370
    27  H    6.070764   5.501942   6.273223   4.816432   4.734055
    28  H    6.761422   4.836317   4.971401   3.529379   3.402319
                   21         22         23         24         25
    21  H    0.000000
    22  H    1.772012   0.000000
    23  H    2.444820   2.548891   0.000000
    24  H    3.075337   2.479410   1.772280   0.000000
    25  H    4.930688   5.945286   4.708100   4.659537   0.000000
    26  H    8.268938   9.383549   8.960391   8.669046   4.585261
    27  H    5.895883   6.781690   7.168502   6.678524   4.300940
    28  H    5.322764   5.837822   7.042348   6.415550   5.731445
                   26         27         28
    26  H    0.000000
    27  H    3.378669   0.000000
    28  H    5.690484   2.327674   0.000000
 Stoichiometry    C12H12O4
 Framework group  C1[X(C12H12O4)]
 Deg. of freedom    78
 Full point group                 C1      NOp   1
 Largest Abelian subgroup         C1      NOp   1
 Largest concise Abelian subgroup C1      NOp   1
                         Standard orientation:                         
 ---------------------------------------------------------------------
 Center     Atomic      Atomic             Coordinates (Angstroms)
 Number     Number       Type             X           Y           Z
 ---------------------------------------------------------------------
      1          6           0       -2.799442    1.397087    1.224001
      2          6           0       -2.316407    0.990018   -0.182476
      3          6           0       -3.153298   -0.155533   -0.783349
      4          6           0       -2.896271   -1.498009   -0.080401
      5          6           0       -0.844934    0.619422   -0.152938
      6          6           0       -0.426974   -0.726986   -0.036510
      7          6           0        0.934917   -1.048225    0.030495
      8          6           0        1.896475   -0.037955   -0.010938
      9          6           0        3.325226   -0.395626    0.060725
     10          8           0        4.187703    0.656880    0.011220
     11          8           0        3.721935   -1.558430    0.158086
     12          6           0        1.490751    1.300512   -0.118863
     13          6           0        0.133837    1.623160   -0.183897
     14          8           0       -0.289979    2.925791   -0.279088
     15          6           0       -1.425731   -1.826166   -0.002689
     16          8           0       -1.057876   -3.002612    0.116072
     17          1           0       -2.625174    0.597662    1.959721
     18          1           0       -3.875385    1.630925    1.208712
     19          1           0       -2.263884    2.294217    1.567674
     20          1           0       -2.446541    1.866771   -0.837642
     21          1           0       -2.898282   -0.262363   -1.851421
     22          1           0       -4.224032    0.099212   -0.732638
     23          1           0       -3.404657   -2.311671   -0.618105
     24          1           0       -3.304366   -1.479528    0.943450
     25          1           0        1.240652   -2.084212    0.113720
     26          1           0        5.122203    0.356197    0.062876
     27          1           0        2.231710    2.092731   -0.149027
     28          1           0        0.444607    3.576832   -0.296594
 ---------------------------------------------------------------------
 Rotational constants (GHZ):           0.8552459           0.3872387           0.2790577
 Standard basis: 6-31G(d) (6D, 7F)
 There are   264 symmetry adapted cartesian basis functions of A   symmetry.
 There are   264 symmetry adapted basis functions of A   symmetry.
   264 basis functions,   496 primitive gaussians,   264 cartesian basis functions
    58 alpha electrons       58 beta electrons
       nuclear repulsion energy      1083.5717860854 Hartrees.
 NAtoms=   28 NActive=   28 NUniq=   28 SFac= 1.00D+00 NAtFMM=   60 NAOKFM=F Big=F
 Integral buffers will be    131072 words long.
 Raffenetti 2 integral format.
 Two-electron integral symmetry is turned on.
 One-electron integrals computed using PRISM.
 NBasis=   264 RedAO= T EigKep=  3.42D-04  NBF=   264
 NBsUse=   264 1.00D-06 EigRej= -1.00D+00 NBFU=   264
 Initial guess from the checkpoint file:  "molecule_1_1.chk"
 B after Tr=     0.000000   -0.000000   -0.000000
         Rot=    0.999981    0.001455    0.000134   -0.005970 Ang=   0.70 deg.
 ExpMin= 1.61D-01 ExpMax= 5.48D+03 ExpMxC= 8.25D+02 IAcc=2 IRadAn=         4 AccDes= 0.00D+00
 Harris functional with IExCor=  402 and IRadAn=       4 diagonalized for initial guess.
 HarFok:  IExCor=  402 AccDes= 0.00D+00 IRadAn=         4 IDoV= 1 UseB2=F ITyADJ=14
 ICtDFT=  3500011 ScaDFX=  1.000000  1.000000  1.000000  1.000000
 FoFCou: FMM=F IPFlag=           0 FMFlag=      100000 FMFlg1=           0
         NFxFlg=           0 DoJE=T BraDBF=F KetDBF=T FulRan=T
[...]
                 (A) (A) (A) (A) (A) (A) (A) (A) (A) (A) (A) (A)
                 (A) (A) (A) (A) (A) (A) (A) (A) (A) (A) (A) (A)
                 (A) (A) (A) (A) (A) (A) (A) (A) (A) (A) (A) (A)
                 (A) (A) (A) (A) (A) (A) (A) (A) (A) (A) (A) (A)
                 (A) (A) (A) (A) (A) (A) (A) (A) (A) (A) (A) (A)
                 (A) (A) (A) (A) (A) (A) (A) (A) (A) (A) (A) (A)
                 (A) (A) (A) (A) (A) (A) (A) (A) (A) (A) (A) (A)
                 (A) (A) (A) (A) (A) (A) (A) (A) (A) (A) (A) (A)
                 (A) (A)
 The electronic state is 1-A.
 Alpha  occ. eigenvalues --  -19.20050 -19.19707 -19.14039 -19.13424 -10.32524
 Alpha  occ. eigenvalues --  -10.27344 -10.26694 -10.21705 -10.21577 -10.21278
 Alpha  occ. eigenvalues --  -10.20695 -10.20582 -10.19962 -10.19510 -10.19290
 Alpha  occ. eigenvalues --  -10.18417  -1.10765  -1.07709  -1.03396  -1.01594
 Alpha  occ. eigenvalues --   -0.87844  -0.83230  -0.77128  -0.76716  -0.74239
 Alpha  occ. eigenvalues --   -0.67705  -0.66773  -0.64813  -0.60620  -0.59060
 Alpha  occ. eigenvalues --   -0.55263  -0.52590  -0.51298  -0.49206  -0.48131
 Alpha  occ. eigenvalues --   -0.47614  -0.47085  -0.45217  -0.44061  -0.43500
 Alpha  occ. eigenvalues --   -0.42609  -0.42036  -0.41482  -0.40717  -0.39415
 Alpha  occ. eigenvalues --   -0.39152  -0.38659  -0.37702  -0.37236  -0.34155
 Alpha  occ. eigenvalues --   -0.34104  -0.33180  -0.32880  -0.32002  -0.28031
 Alpha  occ. eigenvalues --   -0.26516  -0.24440  -0.23766
 Alpha virt. eigenvalues --   -0.06362  -0.04273   0.03196   0.05106   0.06738
 Alpha virt. eigenvalues --    0.07174   0.08929   0.11334   0.11990   0.13727
 Alpha virt. eigenvalues --    0.15227   0.15761   0.16317   0.18030   0.18353
 Alpha virt. eigenvalues --    0.19236   0.19918   0.20998   0.21812   0.22948
 Alpha virt. eigenvalues --    0.23545   0.24186   0.25693   0.26818   0.27854
 Alpha virt. eigenvalues --    0.29975   0.32359   0.34251   0.34836   0.37043
 Alpha virt. eigenvalues --    0.42538   0.44460   0.47205   0.48499   0.48949
 Alpha virt. eigenvalues --    0.49480   0.50735   0.52423   0.53596   0.54641
 Alpha virt. eigenvalues --    0.55367   0.56821   0.58171   0.58483   0.59858
 Alpha virt. eigenvalues --    0.60737   0.61340   0.62355   0.63371   0.65784
 Alpha virt. eigenvalues --    0.66676   0.67417   0.68854   0.70188   0.70799
 Alpha virt. eigenvalues --    0.72596   0.73153   0.74937   0.75452   0.76504
 Alpha virt. eigenvalues --    0.78536   0.79049   0.79228   0.81610   0.81989
 Alpha virt. eigenvalues --    0.82742   0.84549   0.85187   0.86873   0.88714
 Alpha virt. eigenvalues --    0.88940   0.89538   0.90008   0.90122   0.91860
 Alpha virt. eigenvalues --    0.92539   0.92798   0.95425   0.96494   0.97536
 Alpha virt. eigenvalues --    0.98432   0.99415   1.00299   1.02935   1.04183
 Alpha virt. eigenvalues --    1.04321   1.05416   1.08519   1.09472   1.10432
 Alpha virt. eigenvalues --    1.11899   1.17176   1.17559   1.21808   1.23094
 Alpha virt. eigenvalues --    1.26140   1.29444   1.29895   1.30613   1.33483
 Alpha virt. eigenvalues --    1.34918   1.36078   1.36311   1.39079   1.39987
 Alpha virt. eigenvalues --    1.41157   1.44728   1.45971   1.46598   1.47665
 Alpha virt. eigenvalues --    1.52131   1.55854   1.63717   1.64896   1.66908
 Alpha virt. eigenvalues --    1.68283   1.68548   1.70036   1.71975   1.72990
 Alpha virt. eigenvalues --    1.73617   1.74876   1.76171   1.77426   1.78344
 Alpha virt. eigenvalues --    1.80755   1.81613   1.82331   1.83801   1.84009
 Alpha virt. eigenvalues --    1.86011   1.87288   1.89305   1.89754   1.90855
 Alpha virt. eigenvalues --    1.92353   1.93103   1.93724   1.95704   1.98221
 Alpha virt. eigenvalues --    1.99757   2.01598   2.03400   2.04925   2.06333
 Alpha virt. eigenvalues --    2.08261   2.10015   2.11745   2.17096   2.17903
 Alpha virt. eigenvalues --    2.21445   2.24296   2.26064   2.28022   2.29320
 Alpha virt. eigenvalues --    2.30559   2.33036   2.34847   2.35951   2.38232
 Alpha virt. eigenvalues --    2.39766   2.40769   2.42629   2.44084   2.45290
 Alpha virt. eigenvalues --    2.47083   2.51331   2.52665   2.55876   2.57771
 Alpha virt. eigenvalues --    2.62525   2.63361   2.64611   2.67222   2.69764
 Alpha virt. eigenvalues --    2.70294   2.72912   2.73871   2.78748   2.81773
 Alpha virt. eigenvalues --    2.82057   2.92463   2.94977   2.99038   3.00478
 Alpha virt. eigenvalues --    3.04119   3.09865   3.11793   3.23775   3.44369
 Alpha virt. eigenvalues --    3.86122   3.96837   3.98808   4.07425   4.14069
 Alpha virt. eigenvalues --    4.15104   4.20345   4.25278   4.26295   4.40568
 Alpha virt. eigenvalues --    4.43059   4.44754   4.51921   4.61808   4.61905
 Alpha virt. eigenvalues --    4.82673
          Condensed to atoms (all electrons):
               1          2          3          4          5          6
     1  C    5.121299   0.355066  -0.046050  -0.006001  -0.039258  -0.001770
     2  C    0.355066   5.049711   0.347370  -0.030399   0.345869  -0.057150
     3  C   -0.046050   0.347370   5.093010   0.307295  -0.027577  -0.000826
     4  C   -0.006001  -0.030399   0.307295   5.331659  -0.022412  -0.115728
     5  C   -0.039258   0.345869  -0.027577  -0.022412   4.971553   0.494212
     6  C   -0.001770  -0.057150  -0.000826  -0.115728   0.494212   5.187450
     7  C   -0.000188   0.008430  -0.000840   0.011517  -0.072050   0.379315
     8  C    0.000028  -0.000562  -0.000009  -0.000064  -0.022978  -0.014894
     9  C    0.000000   0.000005   0.000000   0.000000   0.001021   0.007623
    10  O   -0.000000   0.000000   0.000000  -0.000000   0.000006  -0.000037
    11  O   -0.000000  -0.000000   0.000000  -0.000000   0.000006   0.001180
    12  C   -0.000211   0.009602  -0.000203  -0.000021  -0.070868  -0.047880
    13  C   -0.003240  -0.064978   0.005527  -0.000571   0.459113   0.005212
    14  O   -0.002974  -0.005394   0.000236  -0.000002  -0.058387   0.002624
    15  C   -0.000051  -0.022803  -0.023535   0.330658  -0.021774   0.265608
    16  O   -0.000003   0.000138   0.002518  -0.083551   0.004185  -0.088466
    17  H    0.372998  -0.032597  -0.006647   0.003235  -0.005681   0.002256
    18  H    0.366461  -0.030316  -0.003926  -0.000098   0.004862   0.000013
    19  H    0.373154  -0.026996   0.004779  -0.000061  -0.007467  -0.000343
    20  H   -0.041284   0.377694  -0.041669   0.004900  -0.040641   0.003295
    21  H    0.005471  -0.036517   0.374975  -0.042757  -0.001522   0.001702
    22  H   -0.005433  -0.031691   0.363118  -0.028062   0.003968   0.000309
    23  H    0.000023   0.003706  -0.026994   0.350054   0.000185   0.005119
    24  H    0.003761  -0.004593  -0.036148   0.354324  -0.000373   0.001813
    25  H    0.000001  -0.000111  -0.000037   0.000748   0.004330  -0.042297
    26  H    0.000000  -0.000000  -0.000000   0.000000   0.000001  -0.000001
    27  H    0.000002  -0.000133   0.000002  -0.000000   0.003999   0.000398
    28  H    0.000064  -0.000235  -0.000001   0.000000   0.007412  -0.000029
               7          8          9         10         11         12
     1  C   -0.000188   0.000028   0.000000  -0.000000  -0.000000  -0.000211
     2  C    0.008430  -0.000562   0.000005   0.000000  -0.000000   0.009602
     3  C   -0.000840  -0.000009   0.000000   0.000000   0.000000  -0.000203
     4  C    0.011517  -0.000064   0.000000  -0.000000  -0.000000  -0.000021
     5  C   -0.072050  -0.022978   0.001021   0.000006   0.000006  -0.070868
     6  C    0.379315  -0.014894   0.007623  -0.000037   0.001180  -0.047880
     7  C    5.297097   0.441244  -0.039275   0.004758   0.002387  -0.084143
     8  C    0.441244   5.033904   0.282944  -0.091930  -0.092818   0.430325
     9  C   -0.039275   0.282944   4.397760   0.276332   0.578321  -0.026486
    10  O    0.004758  -0.091930   0.276332   8.264032  -0.094576   0.000574
    11  O    0.002387  -0.092818   0.578321  -0.094576   8.044477   0.004072
    12  C   -0.084143   0.430325  -0.026486   0.000574   0.004072   5.303235
    13  C   -0.058151   0.006605   0.003029   0.000410  -0.000055   0.426683
    14  O    0.000533   0.003966  -0.000054  -0.000000   0.000000  -0.063264
    15  C   -0.041124   0.007623  -0.000269   0.000000  -0.000013   0.000688
    16  O    0.001637   0.001555  -0.000015  -0.000000   0.000001   0.000008
    17  H   -0.000017  -0.000014  -0.000000   0.000000   0.000000   0.000019
    18  H    0.000004  -0.000000  -0.000000   0.000000   0.000000   0.000005
    19  H    0.000006  -0.000011   0.000000  -0.000000  -0.000000  -0.000051
    20  H   -0.000151   0.000004   0.000000  -0.000000  -0.000000   0.000194
    21  H   -0.000210  -0.000005  -0.000000   0.000000   0.000000   0.000000
    22  H    0.000026  -0.000000  -0.000000   0.000000   0.000000   0.000002
    23  H   -0.000179   0.000001  -0.000000   0.000000   0.000000  -0.000000
    24  H   -0.000345   0.000003  -0.000000   0.000000  -0.000000   0.000001
    25  H    0.352409  -0.039564  -0.007247   0.000253   0.011041   0.005131
    26  H   -0.000280   0.011596  -0.009470   0.220465   0.011245  -0.000499
    27  H    0.005262  -0.022467  -0.010741   0.010427   0.000109   0.339300
    28  H   -0.000003   0.000780  -0.000025  -0.000007  -0.000000  -0.004457
              13         14         15         16         17         18
     1  C   -0.003240  -0.002974  -0.000051  -0.000003   0.372998   0.366461
     2  C   -0.064978  -0.005394  -0.022803   0.000138  -0.032597  -0.030316
     3  C    0.005527   0.000236  -0.023535   0.002518  -0.006647  -0.003926
     4  C   -0.000571  -0.000002   0.330658  -0.083551   0.003235  -0.000098
     5  C    0.459113  -0.058387  -0.021774   0.004185  -0.005681   0.004862
     6  C    0.005212   0.002624   0.265608  -0.088466   0.002256   0.000013
     7  C   -0.058151   0.000533  -0.041124   0.001637  -0.000017   0.000004
     8  C    0.006605   0.003966   0.007623   0.001555  -0.000014  -0.000000
     9  C    0.003029  -0.000054  -0.000269  -0.000015  -0.000000  -0.000000
    10  O    0.000410  -0.000000   0.000000  -0.000000   0.000000   0.000000
    11  O   -0.000055   0.000000  -0.000013   0.000001   0.000000   0.000000
    12  C    0.426683  -0.063264   0.000688   0.000008   0.000019   0.000005
    13  C    4.717502   0.281687   0.006363  -0.000095  -0.000247   0.000046
    14  O    0.281687   8.234884  -0.000038   0.000000   0.000029   0.000005
    15  C    0.006363  -0.000038   4.576150   0.568276  -0.000368  -0.000008
    16  O   -0.000095   0.000000   0.568276   8.032989  -0.000006  -0.000000
    17  H   -0.000247   0.000029  -0.000368  -0.000006   0.571333  -0.030359
    18  H    0.000046   0.000005  -0.000008  -0.000000  -0.030359   0.572508
    19  H    0.002601   0.006565   0.000035   0.000000  -0.029673  -0.027870
    20  H   -0.010375   0.007811   0.000156   0.000002   0.005356  -0.002856
    21  H   -0.000022  -0.000001  -0.002888   0.000109  -0.000029  -0.000021
    22  H   -0.000151  -0.000002   0.002927  -0.000068  -0.000150   0.004325
    23  H    0.000015   0.000000  -0.023073   0.003763  -0.000053  -0.000019
    24  H   -0.000026  -0.000000  -0.024849  -0.000025   0.003095   0.000012
    25  H    0.000298   0.000003  -0.007267   0.016448   0.000002  -0.000000
    26  H    0.000010  -0.000000  -0.000000   0.000000   0.000000  -0.000000
    27  H   -0.044992  -0.004431   0.000008   0.000000   0.000000  -0.000000
    28  H   -0.031663   0.244365   0.000002  -0.000000  -0.000002  -0.000001
              19         20         21         22         23         24
     1  C    0.373154  -0.041284   0.005471  -0.005433   0.000023   0.003761
     2  C   -0.026996   0.377694  -0.036517  -0.031691   0.003706  -0.004593
     3  C    0.004779  -0.041669   0.374975   0.363118  -0.026994  -0.036148
     4  C   -0.000061   0.004900  -0.042757  -0.028062   0.350054   0.354324
     5  C   -0.007467  -0.040641  -0.001522   0.003968   0.000185  -0.000373
     6  C   -0.000343   0.003295   0.001702   0.000309   0.005119   0.001813
     7  C    0.000006  -0.000151  -0.000210   0.000026  -0.000179  -0.000345
     8  C   -0.000011   0.000004  -0.000005  -0.000000   0.000001   0.000003
     9  C    0.000000   0.000000  -0.000000  -0.000000  -0.000000  -0.000000
    10  O   -0.000000  -0.000000   0.000000   0.000000   0.000000   0.000000
    11  O   -0.000000  -0.000000   0.000000   0.000000   0.000000  -0.000000
    12  C   -0.000051   0.000194   0.000000   0.000002  -0.000000   0.000001
    13  C    0.002601  -0.010375  -0.000022  -0.000151   0.000015  -0.000026
    14  O    0.006565   0.007811  -0.000001  -0.000002   0.000000  -0.000000
    15  C    0.000035   0.000156  -0.002888   0.002927  -0.023073  -0.024849
    16  O    0.000000   0.000002   0.000109  -0.000068   0.003763  -0.000025
    17  H   -0.029673   0.005356  -0.000029  -0.000150  -0.000053   0.003095
    18  H   -0.027870  -0.002856  -0.000021   0.004325  -0.000019   0.000012
    19  H    0.542933  -0.004439  -0.000160   0.000020   0.000002  -0.000121
    20  H   -0.004439   0.591142  -0.004965  -0.001822  -0.000112  -0.000009
    21  H   -0.000160  -0.004965   0.590211  -0.034346  -0.003343   0.005395
    22  H    0.000020  -0.001822  -0.034346   0.592943  -0.002613  -0.004888
    23  H    0.000002  -0.000112  -0.003343  -0.002613   0.547059  -0.024519
    24  H   -0.000121  -0.000009   0.005395  -0.004888  -0.024519   0.556053
    25  H    0.000000   0.000002  -0.000004   0.000000  -0.000015  -0.000022
    26  H    0.000000   0.000000  -0.000000  -0.000000  -0.000000  -0.000000
    27  H    0.000004  -0.000003   0.000000  -0.000000   0.000000  -0.000000
    28  H   -0.000097  -0.000194  -0.000000  -0.000000   0.000000  -0.000000
              25         26         27         28
     1  C    0.000001   0.000000   0.000002   0.000064
     2  C   -0.000111  -0.000000  -0.000133  -0.000235
     3  C   -0.000037  -0.000000   0.000002  -0.000001
     4  C    0.000748   0.000000  -0.000000   0.000000
     5  C    0.004330   0.000001   0.003999   0.007412
     6  C   -0.042297  -0.000001   0.000398  -0.000029
     7  C    0.352409  -0.000280   0.005262  -0.000003
     8  C   -0.039564   0.011596  -0.022467   0.000780
     9  C   -0.007247  -0.009470  -0.010741  -0.000025
    10  O    0.000253   0.220465   0.010427  -0.000007
    11  O    0.011041   0.011245   0.000109  -0.000000
    12  C    0.005131  -0.000499   0.339300  -0.004457
    13  C    0.000298   0.000010  -0.044992  -0.031663
    14  O    0.000003  -0.000000  -0.004431   0.244365
    15  C   -0.007267  -0.000000   0.000008   0.000002
    16  O    0.016448   0.000000   0.000000  -0.000000
    17  H    0.000002   0.000000   0.000000  -0.000002
    18  H   -0.000000  -0.000000  -0.000000  -0.000001
    19  H    0.000000   0.000000   0.000004  -0.000097
    20  H    0.000002   0.000000  -0.000003  -0.000194
    21  H   -0.000004  -0.000000   0.000000  -0.000000
    22  H    0.000000  -0.000000  -0.000000  -0.000000
    23  H   -0.000015  -0.000000   0.000000   0.000000
    24  H   -0.000022  -0.000000  -0.000000  -0.000000
    25  H    0.515227  -0.000023  -0.000147  -0.000001
    26  H   -0.000023   0.353714  -0.000312   0.000000
    27  H   -0.000147  -0.000312   0.563096   0.006993
    28  H   -0.000001   0.000000   0.006993   0.362799
 Mulliken charges:
               1
     1  C   -0.451865
     2  C   -0.153117
     3  C   -0.284369
     4  C   -0.364662
     5  C    0.090267
     6  C    0.011291
     7  C   -0.207667
     8  C    0.064737
     9  C    0.546548
    10  O   -0.590707
    11  O   -0.465377
    12  C   -0.221755
    13  C    0.299464
    14  O   -0.648160
    15  C    0.409568
    16  O   -0.459402
    17  H    0.147521
    18  H    0.147234
    19  H    0.167192
    20  H    0.157964
    21  H    0.148927
    22  H    0.141588
    23  H    0.170993
    24  H    0.171463
    25  H    0.190844
    26  H    0.413556
    27  H    0.153625
    28  H    0.414300
 Sum of Mulliken charges =  -0.00000
 Mulliken charges with hydrogens summed into heavy atoms:
               1
     1  C    0.010082
     2  C    0.004847
     3  C    0.006146
     4  C   -0.022206
     5  C    0.090267
     6  C    0.011291
     7  C   -0.016823
     8  C    0.064737
     9  C    0.546548
    10  O   -0.177151
    11  O   -0.465377
    12  C   -0.068130
    13  C    0.299464
    14  O   -0.233860
    15  C    0.409568
    16  O   -0.459402
 Electronic spatial extent (au):  <R**2>=           3816.9779
 Charge=             -0.0000 electrons
 Dipole moment (field-independent basis, Debye):
    X=             -0.6273    Y=              5.2423    Z=             -0.3069  Tot=              5.2886
 Quadrupole moment (field-independent basis, Debye-Ang):
   XX=            -79.7188   YY=            -98.8612   ZZ=            -91.2304
   XY=              9.0720   XZ=             -0.3844   YZ=              0.2231
 Traceless Quadrupole moment (field-independent basis, Debye-Ang):
   XX=             10.2180   YY=             -8.9244   ZZ=             -1.2936
   XY=              9.0720   XZ=             -0.3844   YZ=              0.2231
 Octapole moment (field-independent basis, Debye-Ang**2):
  XXX=             57.3025  YYY=             75.2256  ZZZ=              0.0323  XYY=             15.6479
  XXY=             24.4769  XXZ=             -1.1609  XZZ=              6.2807  YZZ=             -2.9554
  YYZ=             -4.9592  XYZ=             -0.2924
 Hexadecapole moment (field-independent basis, Debye-Ang**3):
 XXXX=          -2703.2810 YYYY=          -1389.0282 ZZZZ=           -210.5904 XXXY=            123.3664
 XXXZ=              7.4262 YYYX=             48.1588 YYYZ=             -8.5521 ZZZX=              4.4721
 ZZZY=             -6.8315 XXYY=           -823.3891 XXZZ=           -564.7761 YYZZ=           -262.9529
 XXYZ=              4.8428 YYXZ=             -3.5673 ZZXY=              2.7286
 N-N= 1.084234168298D+03 E-N=-3.953514583924D+03  KE= 7.584482090110D+02
 1\1\GINC-C072\FOpt\RB3LYP\6-31G(d)\C12H12O4\XYCAO\28-Dec-2023\0\\# opt
  b3lyp/6-31g(d)\\molecule_1_1\\0,1\C,-2.5290110121,0.9027951987,0.9914
 575541\C,-1.8762940801,0.4765495241,-0.3427730693\C,-2.4248409943,-0.8
 621089322,-0.8704679593\C,-1.9138648829,-2.0570228858,-0.0578740791\C,
 -0.364104134,0.4209187542,-0.2168681183\C,0.3326693922,-0.791476489,-0
 .0473668108\C,1.728932285,-0.813383774,0.0658780706\C,2.4519141161,0.3
 747506498,0.0146551378\C,3.9321041123,0.3126429512,0.1397030461\O,4.52
 01001838,1.5382872876,0.0726042074\O,4.5792530071,-0.7030786223,0.2864
 680852\C,1.7760366154,1.5934012164,-0.1516697184\C,0.3890676654,1.6116
 181351,-0.2629327787\O,-0.3079524622,2.7807232255,-0.426673392\C,-0.39
 57386901,-2.1014325862,0.0173655413\O,0.2057265144,-3.1557523603,0.144
 7391843\H,-2.3166982017,0.1903046586,1.7961683653\H,-3.6170768141,0.97
 12560787,0.875404168\H,-2.1584728119,1.8831329642,1.3041999025\H,-2.11
 58978467,1.2567988982,-1.0748320627\H,-2.1190473334,-0.9850061826,-1.9
 179617118\H,-3.5211911904,-0.8403950583,-0.8632714513\H,-2.2577207775,
 -3.013566478,-0.4632876011\H,-2.2880807321,-2.0053896566,0.9752233941\
 H,2.2381591884,-1.7613440457,0.1941454073\H,5.4767067638,1.373635595,0
 .1646220801\H,2.3406968191,2.5205512954,-0.1951454939\H,0.3193453006,3
 .5193606383,-0.4669798975\\Version=ES64L-G16RevA.03\State=1-A\HF=-765.
 4261338\RMSD=6.644e-09\RMSF=1.322e-05\Dipole=-0.6532966,1.9645276,-0.2
 075509\Quadrupole=4.367159,-3.3605608,-1.0065983,8.9900707,-0.4246584,
 0.4915719\PG=C01 [X(C12H12O4)]\\@


 EVERYTHING'S GOT A MORAL, IF ONLY YOU CAN FIND IT.

                                    -- LEWIS CARROL, ALICE IN WONDERLAND
 Job cpu time:       0 days  0 hours 39 minutes 13.8 seconds.
 Elapsed time:       0 days  0 hours  1 minutes 16.0 seconds.
 File lengths (MBytes):  RWF=     50 Int=      0 D2E=      0 Chk=      7 Scr=      1
 Normal termination of Gaussian 16 at Thu Dec 28 10:00:17 2023.
