 Entering Gaussian System, Link 0=g16
 Input=molecule_17_1.com
 Output=molecule_17_1.log
 Initial command:
 /share/apps/g16/A03/l1.exe "/tmp/954154.tmpdir/scr/Gau-58090.inp" -scrdir="/tmp/954154.tmpdir/scr/"
 Entering Link 1 = /share/apps/g16/A03/l1.exe PID=     58091.
  
 Copyright (c) 1988,1990,1992,1993,1995,1998,2003,2009,2016,
            Gaussian, Inc.  All Rights Reserved.
  
 This is part of the Gaussian(R) 16 program.  It is based on
 the Gaussian(R) 09 system (copyright 2009, Gaussian, Inc.),
 the Gaussian(R) 03 system (copyright 2003, Gaussian, Inc.),
 the Gaussian(R) 98 system (copyright 1998, Gaussian, Inc.),
 the Gaussian(R) 94 system (copyright 1995, Gaussian, Inc.),
 the Gaussian 92(TM) system (copyright 1992, Gaussian, Inc.),
 the Gaussian 90(TM) system (copyright 1990, Gaussian, Inc.),
 the Gaussian 88(TM) system (copyright 1988, Gaussian, Inc.),
 the Gaussian 86(TM) system (copyright 1986, Carnegie Mellon
 University), and the Gaussian 82(TM) system (copyright 1983,
 Carnegie Mellon University). Gaussian is a federally registered
 trademark of Gaussian, Inc.
  
 This software contains proprietary and confidential information,
 including trade secrets, belonging to Gaussian, Inc.
  
 This software is provided under written license and may be
 used, copied, transmitted, or stored only in accord with that
 written license.
  
 The following legend is applicable only to US Government
 contracts under FAR:
  
                    RESTRICTED RIGHTS LEGEND
  
 Use, reproduction and disclosure by the US Government is
 subject to restrictions as set forth in subparagraphs (a)
 and (c) of the Commercial Computer Software - Restricted
 Rights clause in FAR 52.227-19.
  
 Gaussian, Inc.
 340 Quinnipiac St., Bldg. 40, Wallingford CT 06492
  
  
 ---------------------------------------------------------------
 Warning -- This program may not be used in any manner that
 competes with the business of Gaussian, Inc. or will provide
 assistance to any competitor of Gaussian, Inc.  The licensee
 of this program is prohibited from giving any competitor of
 Gaussian, Inc. access to this program.  By using this program,
 the user acknowledges that Gaussian, Inc. is engaged in the
 business of creating and licensing software in the field of
 computational chemistry and represents and warrants to the
 licensee that it is not a competitor of Gaussian, Inc. and that
 it will not use this program in any manner prohibited above.
 ---------------------------------------------------------------
  

 Cite this work as:
 Gaussian 16, Revision A.03,
 M. J. Frisch, G. W. Trucks, H. B. Schlegel, G. E. Scuseria, 
 M. A. Robb, J. R. Cheeseman, G. Scalmani, V. Barone, 
 G. A. Petersson, H. Nakatsuji, X. Li, M. Caricato, A. V. Marenich, 
 J. Bloino, B. G. Janesko, R. Gomperts, B. Mennucci, H. P. Hratchian, 
 J. V. Ortiz, A. F. Izmaylov, J. L. Sonnenberg, D. Williams-Young, 
 F. Ding, F. Lipparini, F. Egidi, J. Goings, B. Peng, A. Petrone, 
 T. Henderson, D. Ranasinghe, V. G. Zakrzewski, J. Gao, N. Rega, 
 G. Zheng, W. Liang, M. Hada, M. Ehara, K. Toyota, R. Fukuda, 
 J. Hasegawa, M. Ishida, T. Nakajima, Y. Honda, O. Kitao, H. Nakai, 
 T. Vreven, K. Throssell, J. A. Montgomery, Jr., J. E. Peralta, 
 F. Ogliaro, M. J. Bearpark, J. J. Heyd, E. N. Brothers, K. N. Kudin, 
 V. N. Staroverov, T. A. Keith, R. Kobayashi, J. Normand, 
 K. Raghavachari, A. P. Rendell, J. C. Burant, S. S. Iyengar, 
 J. Tomasi, M. Cossi, J. M. Millam, M. Klene, C. Adamo, R. Cammi, 
 J. W. Ochterski, R. L. Martin, K. Morokuma, O. Farkas, 
 J. B. Foresman, and D. J. Fox, Gaussian, Inc., Wallingford CT, 2016.
 
 ******************************************
 Gaussian 16:  ES64L-G16RevA.03 25-Dec-2016
                28-Dec-2023 
 ******************************************
 %nprocs=32
 Will use up to   32 processors via shared memory.
 %chk=molecule_17_1.chk
 %mem=10GB
 --------------------
 # opt b3lyp/6-31g(d)
 --------------------
 1/18=20,19=15,26=3,38=1/1,3;
 2/9=110,12=2,17=6,18=5,40=1/2;
 3/5=1,6=6,7=1,11=2,25=1,30=1,71=1,74=-5/1,2,3;
 4//1;
 5/5=2,38=5/2;
 6/7=2,8=2,9=2,10=2,28=1/1;
 7//1,2,3,16;
 1/18=20,19=15,26=3/3(2);
 2/9=110/2;
 99//99;
 2/9=110/2;
 3/5=1,6=6,7=1,11=2,25=1,30=1,71=1,74=-5/1,2,3;
 4/5=5,16=3,69=1/1;
 5/5=2,38=5/2;
 7//1,2,3,16;
 1/18=20,19=15,26=3/3(-5);
 2/9=110/2;
 6/7=2,8=2,9=2,10=2,19=2,28=1/1;
 99/9=1/99;
 -------------
 molecule_17_1
 -------------
 Symbolic Z-matrix:
 Charge =  0 Multiplicity = 1
 O                     5.1389    2.0573    1.4756 
 C                     4.1064    1.3267    0.8885 
 C                     2.817     1.8622    0.8251 
 C                     1.7802    1.1336    0.2443 
 C                     2.0111   -0.1499   -0.2814 
 C                     0.8782   -0.902    -0.8752 
 N                    -0.1418   -0.2859   -1.3716 
 C                    -1.2335   -1.144    -1.7921 
 C                    -2.5562   -0.4927   -1.5032 
 N                    -2.8115    0.1009   -0.2221 
 C                    -4.0916    0.7381    0.0807 
 C                    -4.095     1.2757    1.4765 
 O                    -4.5002    0.4634    2.5307 
 O                    -3.6894    2.447     1.7027 
 O                    -3.4531   -0.4963   -2.3897 
 C                    -1.0714   -2.4679   -1.043 
 S                     0.7113   -2.6807   -0.7532 
 C                     3.318    -0.6873   -0.2376 
 O                     3.569    -1.9384   -0.8067 
 C                     4.3618    0.054     0.3586 
 Cl                    6.001    -0.5876    0.4438 
 H                     4.982     2.9794    1.8654 
 H                     2.6151    2.8453    1.2312 
 H                     0.7888    1.5696    0.222 
 H                    -1.1325   -1.3313   -2.8846 
 H                    -2.0602    0.07      0.5052 
 H                    -4.2732    1.5673   -0.6369 
 H                    -4.9102   -0.0056   -0.0256 
 H                    -4.4912    0.8064    3.4838 
 H                    -1.4695   -3.3146   -1.6413 
 H                    -1.5821   -2.442    -0.0558 
 H                     4.4837   -2.3707   -0.8141 
 

 GradGradGradGradGradGradGradGradGradGradGradGradGradGradGradGradGradGrad
 Berny optimization.
 Initialization pass.
                           ----------------------------
                           !    Initial Parameters    !
                           ! (Angstroms and Degrees)  !
 --------------------------                            --------------------------
 ! Name  Definition              Value          Derivative Info.                !
 --------------------------------------------------------------------------------
 ! R1    R(1,2)                  1.3945         estimate D2E/DX2                !
 ! R2    R(1,22)                 1.0133         estimate D2E/DX2                !
 ! R3    R(2,3)                  1.3976         estimate D2E/DX2                !
 ! R4    R(2,20)                 1.4021         estimate D2E/DX2                !
 ! R5    R(3,4)                  1.394          estimate D2E/DX2                !
 ! R6    R(3,23)                 1.0827         estimate D2E/DX2                !
 ! R7    R(4,5)                  1.4061         estimate D2E/DX2                !
 ! R8    R(4,24)                 1.0833         estimate D2E/DX2                !
 ! R9    R(5,6)                  1.4838         estimate D2E/DX2                !
 ! R10   R(5,18)                 1.4138         estimate D2E/DX2                !
 ! R11   R(6,7)                  1.2909         estimate D2E/DX2                !
 ! R12   R(6,17)                 1.7907         estimate D2E/DX2                !
 ! R13   R(7,8)                  1.4508         estimate D2E/DX2                !
 ! R14   R(8,9)                  1.5024         estimate D2E/DX2                !
 ! R15   R(8,16)                 1.5298         estimate D2E/DX2                !
 ! R16   R(8,25)                 1.113          estimate D2E/DX2                !
 ! R17   R(9,10)                 1.4348         estimate D2E/DX2                !
 ! R18   R(9,15)                 1.2611         estimate D2E/DX2                !
 ! R19   R(10,11)                1.4616         estimate D2E/DX2                !
 ! R20   R(10,26)                1.0461         estimate D2E/DX2                !
 ! R21   R(11,12)                1.4958         estimate D2E/DX2                !
 ! R22   R(11,27)                1.1115         estimate D2E/DX2                !
 ! R23   R(11,28)                1.1111         estimate D2E/DX2                !
 ! R24   R(12,13)                1.3912         estimate D2E/DX2                !
 ! R25   R(12,14)                1.26           estimate D2E/DX2                !
 ! R26   R(13,29)                1.013          estimate D2E/DX2                !
 ! R27   R(16,17)                1.8186         estimate D2E/DX2                !
 ! R28   R(16,30)                1.1106         estimate D2E/DX2                !
 ! R29   R(16,31)                1.1118         estimate D2E/DX2                !
 ! R30   R(18,19)                1.3972         estimate D2E/DX2                !
 ! R31   R(18,20)                1.4123         estimate D2E/DX2                !
 ! R32   R(19,32)                1.0117         estimate D2E/DX2                !
 ! R33   R(20,21)                1.7624         estimate D2E/DX2                !
 ! A1    A(2,1,22)             121.6059         estimate D2E/DX2                !
 ! A2    A(1,2,3)              120.0962         estimate D2E/DX2                !
 ! A3    A(1,2,20)             119.989          estimate D2E/DX2                !
 ! A4    A(3,2,20)             119.9147         estimate D2E/DX2                !
 ! A5    A(2,3,4)              120.3195         estimate D2E/DX2                !
 ! A6    A(2,3,23)             120.1951         estimate D2E/DX2                !
 ! A7    A(4,3,23)             119.4849         estimate D2E/DX2                !
 ! A8    A(3,4,5)              120.714          estimate D2E/DX2                !
 ! A9    A(3,4,24)             118.614          estimate D2E/DX2                !
 ! A10   A(5,4,24)             120.6633         estimate D2E/DX2                !
 ! A11   A(4,5,6)              119.1385         estimate D2E/DX2                !
 ! A12   A(4,5,18)             119.1571         estimate D2E/DX2                !
 ! A13   A(6,5,18)             121.7034         estimate D2E/DX2                !
 ! A14   A(5,6,7)              121.0149         estimate D2E/DX2                !
 ! A15   A(5,6,17)             123.1872         estimate D2E/DX2                !
 ! A16   A(7,6,17)             115.2539         estimate D2E/DX2                !
 ! A17   A(6,7,8)              115.0702         estimate D2E/DX2                !
 ! A18   A(7,8,9)              110.5074         estimate D2E/DX2                !
 ! A19   A(7,8,16)             106.8698         estimate D2E/DX2                !
 ! A20   A(7,8,25)             108.405          estimate D2E/DX2                !
 ! A21   A(9,8,16)             111.9811         estimate D2E/DX2                !
 ! A22   A(9,8,25)             109.9735         estimate D2E/DX2                !
 ! A23   A(16,8,25)            108.9901         estimate D2E/DX2                !
 ! A24   A(8,9,10)             120.5096         estimate D2E/DX2                !
 ! A25   A(8,9,15)             119.3233         estimate D2E/DX2                !
 ! A26   A(10,9,15)            120.1512         estimate D2E/DX2                !
 ! A27   A(9,10,11)            121.4098         estimate D2E/DX2                !
 ! A28   A(9,10,26)            118.7336         estimate D2E/DX2                !
 ! A29   A(11,10,26)           119.8564         estimate D2E/DX2                !
 ! A30   A(10,11,12)           110.6097         estimate D2E/DX2                !
 ! A31   A(10,11,27)           109.5458         estimate D2E/DX2                !
 ! A32   A(10,11,28)           109.4895         estimate D2E/DX2                !
 ! A33   A(12,11,27)           109.5092         estimate D2E/DX2                !
 ! A34   A(12,11,28)           109.1584         estimate D2E/DX2                !
 ! A35   A(27,11,28)           108.4935         estimate D2E/DX2                !
 ! A36   A(11,12,13)           119.8638         estimate D2E/DX2                !
 ! A37   A(11,12,14)           120.06           estimate D2E/DX2                !
 ! A38   A(13,12,14)           120.0337         estimate D2E/DX2                !
 ! A39   A(12,13,29)           120.8429         estimate D2E/DX2                !
 ! A40   A(8,16,17)            106.4498         estimate D2E/DX2                !
 ! A41   A(8,16,30)            110.9784         estimate D2E/DX2                !
 ! A42   A(8,16,31)            111.4679         estimate D2E/DX2                !
 ! A43   A(17,16,30)           110.3669         estimate D2E/DX2                !
 ! A44   A(17,16,31)           108.1506         estimate D2E/DX2                !
 ! A45   A(30,16,31)           109.3578         estimate D2E/DX2                !
 ! A46   A(6,17,16)             87.9528         estimate D2E/DX2                !
 ! A47   A(5,18,19)            119.5924         estimate D2E/DX2                !
 ! A48   A(5,18,20)            119.7875         estimate D2E/DX2                !
 ! A49   A(19,18,20)           120.6103         estimate D2E/DX2                !
 ! A50   A(18,19,32)           123.2302         estimate D2E/DX2                !
 ! A51   A(2,20,18)            120.0918         estimate D2E/DX2                !
 ! A52   A(2,20,21)            118.7917         estimate D2E/DX2                !
 ! A53   A(18,20,21)           121.1153         estimate D2E/DX2                !
 ! D1    D(22,1,2,3)             0.0649         estimate D2E/DX2                !
 ! D2    D(22,1,2,20)          179.9484         estimate D2E/DX2                !
 ! D3    D(1,2,3,4)           -179.7293         estimate D2E/DX2                !
 ! D4    D(1,2,3,23)            -0.0023         estimate D2E/DX2                !
 ! D5    D(20,2,3,4)             0.3871         estimate D2E/DX2                !
 ! D6    D(20,2,3,23)         -179.8859         estimate D2E/DX2                !
 ! D7    D(1,2,20,18)         -179.9411         estimate D2E/DX2                !
 ! D8    D(1,2,20,21)           -0.3311         estimate D2E/DX2                !
 ! D9    D(3,2,20,18)           -0.0573         estimate D2E/DX2                !
 ! D10   D(3,2,20,21)          179.5527         estimate D2E/DX2                !
 ! D11   D(2,3,4,5)              0.2423         estimate D2E/DX2                !
 ! D12   D(2,3,4,24)           179.1776         estimate D2E/DX2                !
 ! D13   D(23,3,4,5)          -179.4866         estimate D2E/DX2                !
 ! D14   D(23,3,4,24)           -0.5513         estimate D2E/DX2                !
 ! D15   D(3,4,5,6)            179.1787         estimate D2E/DX2                !
 ! D16   D(3,4,5,18)            -1.1852         estimate D2E/DX2                !
 ! D17   D(24,4,5,6)             0.2654         estimate D2E/DX2                !
 ! D18   D(24,4,5,18)          179.9015         estimate D2E/DX2                !
 ! D19   D(4,5,6,7)             26.0478         estimate D2E/DX2                !
 ! D20   D(4,5,6,17)          -145.0866         estimate D2E/DX2                !
 ! D21   D(18,5,6,7)          -153.5787         estimate D2E/DX2                !
 ! D22   D(18,5,6,17)           35.2869         estimate D2E/DX2                !
 ! D23   D(4,5,18,19)         -177.3691         estimate D2E/DX2                !
 ! D24   D(4,5,18,20)            1.5008         estimate D2E/DX2                !
 ! D25   D(6,5,18,19)            2.2573         estimate D2E/DX2                !
 ! D26   D(6,5,18,20)         -178.8728         estimate D2E/DX2                !
 ! D27   D(5,6,7,8)           -173.9322         estimate D2E/DX2                !
 ! D28   D(17,6,7,8)            -2.131          estimate D2E/DX2                !
 ! D29   D(5,6,17,16)          157.4569         estimate D2E/DX2                !
 ! D30   D(7,6,17,16)          -14.1456         estimate D2E/DX2                !
 ! D31   D(6,7,8,9)            143.2934         estimate D2E/DX2                !
 ! D32   D(6,7,8,16)            21.219          estimate D2E/DX2                !
 ! D33   D(6,7,8,25)           -96.1214         estimate D2E/DX2                !
 ! D34   D(7,8,9,10)           -47.2812         estimate D2E/DX2                !
 ! D35   D(7,8,9,15)           134.1708         estimate D2E/DX2                !
 ! D36   D(16,8,9,10)           71.7376         estimate D2E/DX2                !
 ! D37   D(16,8,9,15)         -106.8103         estimate D2E/DX2                !
 ! D38   D(25,8,9,10)         -166.9252         estimate D2E/DX2                !
 ! D39   D(25,8,9,15)           14.5269         estimate D2E/DX2                !
 ! D40   D(7,8,16,17)          -29.7589         estimate D2E/DX2                !
 ! D41   D(7,8,16,30)         -149.8818         estimate D2E/DX2                !
 ! D42   D(7,8,16,31)           87.9604         estimate D2E/DX2                !
 ! D43   D(9,8,16,17)         -150.9024         estimate D2E/DX2                !
 ! D44   D(9,8,16,30)           88.9747         estimate D2E/DX2                !
 ! D45   D(9,8,16,31)          -33.1831         estimate D2E/DX2                !
 ! D46   D(25,8,16,17)          87.1953         estimate D2E/DX2                !
 ! D47   D(25,8,16,30)         -32.9276         estimate D2E/DX2                !
 ! D48   D(25,8,16,31)        -155.0854         estimate D2E/DX2                !
 ! D49   D(8,9,10,11)         -179.9205         estimate D2E/DX2                !
 ! D50   D(8,9,10,26)           -0.0727         estimate D2E/DX2                !
 ! D51   D(15,9,10,11)          -1.3845         estimate D2E/DX2                !
 ! D52   D(15,9,10,26)         178.4632         estimate D2E/DX2                !
 ! D53   D(9,10,11,12)        -179.9006         estimate D2E/DX2                !
 ! D54   D(9,10,11,27)         -59.0953         estimate D2E/DX2                !
 ! D55   D(9,10,11,28)          59.7663         estimate D2E/DX2                !
 ! D56   D(26,10,11,12)          0.2534         estimate D2E/DX2                !
 ! D57   D(26,10,11,27)        121.0586         estimate D2E/DX2                !
 ! D58   D(26,10,11,28)       -120.0797         estimate D2E/DX2                !
 ! D59   D(10,11,12,13)        -88.7471         estimate D2E/DX2                !
 ! D60   D(10,11,12,14)         88.883          estimate D2E/DX2                !
 ! D61   D(27,11,12,13)        150.4259         estimate D2E/DX2                !
 ! D62   D(27,11,12,14)        -31.9441         estimate D2E/DX2                !
 ! D63   D(28,11,12,13)         31.7836         estimate D2E/DX2                !
 ! D64   D(28,11,12,14)       -150.5863         estimate D2E/DX2                !
 ! D65   D(11,12,13,29)        178.8028         estimate D2E/DX2                !
 ! D66   D(14,12,13,29)          1.1721         estimate D2E/DX2                !
 ! D67   D(8,16,17,6)           24.3757         estimate D2E/DX2                !
 ! D68   D(30,16,17,6)         144.8931         estimate D2E/DX2                !
 ! D69   D(31,16,17,6)         -95.517          estimate D2E/DX2                !
 ! D70   D(5,18,19,32)         179.4208         estimate D2E/DX2                !
 ! D71   D(20,18,19,32)          0.5604         estimate D2E/DX2                !
 ! D72   D(5,18,20,2)           -0.8923         estimate D2E/DX2                !
 ! D73   D(5,18,20,21)         179.5069         estimate D2E/DX2                !
 ! D74   D(19,18,20,2)         177.9659         estimate D2E/DX2                !
 ! D75   D(19,18,20,21)         -1.6349         estimate D2E/DX2                !
 --------------------------------------------------------------------------------
 Trust Radius=3.00D-01 FncErr=1.00D-07 GrdErr=1.00D-06 EigMax=2.50D+02 EigMin=1.00D-04
 Number of steps in this run=    171 maximum allowed number of steps=    192.
 GradGradGradGradGradGradGradGradGradGradGradGradGradGradGradGradGradGrad

                          Input orientation:                          
 ---------------------------------------------------------------------
 Center     Atomic      Atomic             Coordinates (Angstroms)
 Number     Number       Type             X           Y           Z
 ---------------------------------------------------------------------
      1          8           0        5.138900    2.057300    1.475600
      2          6           0        4.106400    1.326700    0.888500
      3          6           0        2.817000    1.862200    0.825100
      4          6           0        1.780200    1.133600    0.244300
      5          6           0        2.011100   -0.149900   -0.281400
      6          6           0        0.878200   -0.902000   -0.875200
      7          7           0       -0.141800   -0.285900   -1.371600
      8          6           0       -1.233500   -1.144000   -1.792100
      9          6           0       -2.556200   -0.492700   -1.503200
     10          7           0       -2.811500    0.100900   -0.222100
     11          6           0       -4.091600    0.738100    0.080700
     12          6           0       -4.095000    1.275700    1.476500
     13          8           0       -4.500200    0.463400    2.530700
     14          8           0       -3.689400    2.447000    1.702700
     15          8           0       -3.453100   -0.496300   -2.389700
     16          6           0       -1.071400   -2.467900   -1.043000
     17         16           0        0.711300   -2.680700   -0.753200
     18          6           0        3.318000   -0.687300   -0.237600
     19          8           0        3.569000   -1.938400   -0.806700
     20          6           0        4.361800    0.054000    0.358600
     21         17           0        6.001000   -0.587600    0.443800
     22          1           0        4.982000    2.979400    1.865400
     23          1           0        2.615100    2.845300    1.231200
     24          1           0        0.788800    1.569600    0.222000
     25          1           0       -1.132500   -1.331300   -2.884600
     26          1           0       -2.060200    0.070000    0.505200
     27          1           0       -4.273200    1.567300   -0.636900
     28          1           0       -4.910200   -0.005600   -0.025600
     29          1           0       -4.491200    0.806400    3.483800
     30          1           0       -1.469500   -3.314600   -1.641300
     31          1           0       -1.582100   -2.442000   -0.055800
     32          1           0        4.483700   -2.370700   -0.814100
 ---------------------------------------------------------------------
                    Distance matrix (angstroms):
                    1          2          3          4          5
     1  O    0.000000
     2  C    1.394460   0.000000
     3  C    2.419180   1.397617   0.000000
     4  C    3.694616   2.421464   1.393966   0.000000
     5  C    4.212115   2.817676   2.433591   1.406075   0.000000
     6  C    5.695374   4.301048   3.780313   2.492098   1.483818
     7  N    6.440724   5.075011   4.265480   2.884475   2.417025
     8  C    7.844340   6.465640   5.682739   4.291477   3.714550
     9  C    8.636568   7.308945   6.311720   4.950048   4.740310
    10  N    8.361731   7.112901   5.989893   4.729451   4.829481
    11  C    9.428052   8.258704   7.038926   5.887378   6.177589
    12  C    9.266920   8.222609   6.967356   6.004705   6.512066
    13  O    9.826800   8.804298   7.642456   6.717158   7.119064
    14  O    8.839815   7.917859   6.591314   5.811065   6.570863
    15  O    9.761346   8.438955   7.430452   6.081279   5.867061
    16  C    8.086322   6.703678   6.112219   4.770699   3.931280
    17  S    6.857101   5.502830   5.250042   4.084904   2.883925
    18  C    3.712622   2.438416   2.807184   2.431611   1.413756
    19  O    4.862006   3.717981   4.203907   3.706965   2.429347
    20  C    2.421732   1.402066   2.423555   2.800582   2.444783
    21  Cl   2.967040   2.729801   4.035439   4.562618   4.078823
    22  H    1.013326   2.110077   2.649072   4.035649   4.819493
    23  H    2.655229   2.155821   1.082666   2.144982   3.409398
    24  H    4.553321   3.392594   2.136104   1.083267   2.168896
    25  H    8.356100   6.981928   6.289584   4.934528   4.249068
    26  H    7.531141   6.305011   5.205900   3.993493   4.152418
    27  H    9.658695   8.520706   7.245367   6.132557   6.524384
    28  H   10.367911   9.160223   7.995123   6.792060   6.927528
    29  H    9.916473   8.995833   7.848133   7.066249   7.574374
    30  H    9.068811   7.683242   7.159362   5.822587   4.896859
    31  H    8.231690   6.888674   6.217250   4.917320   4.267986
    32  H    5.027842   4.088027   4.835526   4.550741   3.365928
                    6          7          8          9         10
     6  C    0.000000
     7  N    1.290888   0.000000
     8  C    2.314853   1.450850   0.000000
     9  C    3.515254   2.426811   1.502395   0.000000
    10  N    3.878948   2.932279   2.550443   1.434837   0.000000
    11  C    5.320017   4.331128   3.901079   2.526076   1.461632
    12  C    5.916552   5.116450   4.972613   3.791274   2.431619
    13  O    6.510888   5.897885   5.651696   4.578822   3.249773
    14  O    6.222888   5.431899   5.580354   4.494861   3.159074
    15  O    4.606350   3.470663   2.388151   1.261081   2.338116
    16  C    2.506220   2.394422   1.529751   2.513529   3.209448
    17  S    1.790674   2.616346   2.687565   4.003299   4.519899
    18  C    2.530860   3.662962   4.831273   6.012141   6.179989
    19  O    2.884306   4.101208   4.966497   6.331922   6.723934
    20  C    3.817285   4.836480   6.112945   7.184978   7.196919
    21  Cl   5.299216   6.412542   7.592550   8.776417   8.864401
    22  H    6.278322   6.884307   8.307357   8.956975   8.566333
    23  H    4.636378   4.917263   6.313999   6.735097   6.252344
    24  H    2.705669   2.616956   3.938264   4.291669   3.913626
    25  H    2.874874   2.088903   1.113031   2.153703   3.458200
    26  H    3.388876   2.707268   2.726686   2.143902   1.046122
    27  H    5.717618   4.587221   4.233841   2.818185   2.111624
    28  H    5.918693   4.962653   4.234926   2.821681   2.110568
    29  H    7.123901   6.609486   6.500138   5.504730   4.129506
    30  H    3.452426   3.317913   2.188593   3.027063   3.934556
    31  H    3.015973   2.907673   2.195692   2.616029   2.829385
    32  H    3.893641   5.104160   5.928546   7.318602   7.725232
                   11         12         13         14         15
    11  C    0.000000
    12  C    1.495755   0.000000
    13  O    2.498983   1.391171   0.000000
    14  O    2.390186   1.260009   2.297314   0.000000
    15  O    2.834484   4.301107   5.121306   5.046443   0.000000
    16  C    4.545629   5.431812   5.755043   6.208787   3.372433
    17  S    5.954110   6.612502   6.915858   7.189639   4.979153
    18  C    7.552169   7.857740   8.373282   7.917844   7.107448
    19  O    8.163083   8.618604   9.056427   8.843822   7.341351
    20  C    8.485587   8.617408   9.133492   8.506167   8.302328
    21  Cl  10.185769  10.318312  10.758018  10.232179   9.870008
    22  H    9.515188   9.243688   9.832853   8.689252  10.066642
    23  H    7.123466   6.895597   7.615093   6.334641   7.816665
    24  H    4.952743   5.050906   5.875993   4.797560   5.392832
    25  H    4.672440   5.881501   6.624789   6.469668   2.515420
    26  H    2.180171   2.556863   3.195468   3.120645   3.262102
    27  H    1.111531   2.140852   3.362115   2.566792   2.829013
    28  H    1.111078   2.136021   2.631108   3.239231   2.820088
    29  H    3.427161   2.099159   1.012981   2.550837   6.105136
    30  H    5.124946   6.138793   6.392496   7.021846   3.526696
    31  H    4.053302   4.741719   4.862781   5.606724   3.568400
    32  H    9.165210   9.598811   9.996513   9.815502   8.305943
                   16         17         18         19         20
    16  C    0.000000
    17  S    1.818595   0.000000
    18  C    4.804793   3.321802   0.000000
    19  O    4.676486   2.953019   1.397185   0.000000
    20  C    6.151758   4.694767   1.412267   2.440515   0.000000
    21  Cl   7.467593   5.813330   2.769970   3.050088   1.762352
    22  H    8.647284   7.558616   4.542708   5.772473   3.348591
    23  H    6.855098   6.172437   3.889821   5.286468   3.406427
    24  H    4.621902   4.361430   3.420772   4.592799   3.883559
    25  H    2.164967   3.124635   5.218074   5.175939   6.528762
    26  H    3.132983   4.102576   5.481815   6.119040   6.423693
    27  H    5.167135   6.550135   7.928996   8.591791   8.822943
    28  H    4.672730   6.267920   8.259112   8.731705   9.280148
    29  H    6.550419   7.561616   8.778585   9.534629   9.418524
    30  H    1.110562   2.438532   5.638549   5.289326   7.025036
    31  H    1.111777   2.408947   5.207975   5.229847   6.460007
    32  H    5.560664   3.785606   2.127215   1.011738   2.696156
                   21         22         23         24         25
    21  Cl   0.000000
    22  H    3.972757   0.000000
    23  H    4.885603   2.454060   0.000000
    24  H    5.645329   4.719240   2.445663   0.000000
    25  H    7.906843   8.861814   6.959045   4.664502   0.000000
    26  H    8.088211   7.739983   5.485234   3.231997   3.783519
    27  H   10.553231   9.690937   7.250638   5.134351   4.828875
    28  H   10.936789  10.504367   8.144772   5.917868   4.919591
    29  H   11.012316   9.853054   7.728572   6.253016   7.510469
    30  H    8.221468   9.671258   7.929665   5.694490   2.364919
    31  H    7.822519   8.727542   6.872292   4.668112   3.072117
    32  H    2.657811   6.004298   5.906062   5.500159   6.075280
                   26         27         28         29         30
    26  H    0.000000
    27  H    2.905799   0.000000
    28  H    2.899994   1.803738   0.000000
    29  H    3.914601   4.196029   3.626402   0.000000
    30  H    4.051161   5.718610   5.039681   7.237400   0.000000
    31  H    2.617908   4.863557   4.124707   5.616381   1.813262
    32  H    7.107756   9.603257   9.719094  10.445800   6.084061
                   31         32
    31  H    0.000000
    32  H    6.113430   0.000000
 Stoichiometry    C12H11ClN2O5S
 Framework group  C1[X(C12H11ClN2O5S)]
 Deg. of freedom    90
 Full point group                 C1      NOp   1
 Largest Abelian subgroup         C1      NOp   1
 Largest concise Abelian subgroup C1      NOp   1
                         Standard orientation:                         
 ---------------------------------------------------------------------
 Center     Atomic      Atomic             Coordinates (Angstroms)
 Number     Number       Type             X           Y           Z
 ---------------------------------------------------------------------
      1          8           0        4.499142    2.765223   -0.337498
      2          6           0        3.481765    1.811711   -0.320855
      3          6           0        2.172018    2.178635   -0.642200
      4          6           0        1.150413    1.230458   -0.621576
      5          6           0        1.417417   -0.105457   -0.273601
      6          6           0        0.300393   -1.081759   -0.245188
      7          7           0       -0.753107   -0.908435   -0.970783
      8          6           0       -1.821035   -1.863526   -0.742106
      9          6           0       -3.160385   -1.191732   -0.851762
     10          7           0       -3.408603    0.052007   -0.180750
     11          6           0       -4.704547    0.721684   -0.272568
     12          6           0       -4.696390    1.994361    0.513248
     13          8           0       -5.046626    1.979484    1.859528
     14          8           0       -4.330108    3.069991   -0.031251
     15          8           0       -4.076468   -1.745720   -1.518256
     16          6           0       -1.592216   -2.461049    0.647407
     17         16           0        0.203365   -2.426138    0.933686
     18          6           0        2.744272   -0.485474    0.032582
     19          8           0        3.029149   -1.821550    0.325622
     20          6           0        3.772743    0.482244    0.016250
     21         17           0        5.436440    0.049739    0.404756
     22          1           0        4.316572    3.732463   -0.578215
     23          1           0        1.942567    3.203559   -0.904972
     24          1           0        0.143058    1.547898   -0.862274
     25          1           0       -1.737962   -2.672257   -1.502298
     26          1           0       -2.640306    0.479817    0.385880
     27          1           0       -4.933514    0.944266   -1.337243
     28          1           0       -5.496790    0.052242    0.125797
     29          1           0       -5.028839    2.829523    2.410207
     30          1           0       -1.971694   -3.503472    0.699359
     31          1           0       -2.080917   -1.851132    1.438117
     32          1           0        3.959063   -2.155265    0.543589
 ---------------------------------------------------------------------
 Rotational constants (GHZ):           0.4158062           0.1201964           0.1004582
 Standard basis: 6-31G(d) (6D, 7F)
 There are   345 symmetry adapted cartesian basis functions of A   symmetry.
 There are   345 symmetry adapted basis functions of A   symmetry.
   345 basis functions,   680 primitive gaussians,   345 cartesian basis functions
    85 alpha electrons       85 beta electrons
       nuclear repulsion energy      1870.6425560937 Hartrees.
 NAtoms=   32 NActive=   32 NUniq=   32 SFac= 1.00D+00 NAtFMM=   60 NAOKFM=F Big=F
 Integral buffers will be    131072 words long.
 Raffenetti 2 integral format.
 Two-electron integral symmetry is turned on.
 One-electron integrals computed using PRISM.
 NBasis=   345 RedAO= T EigKep=  3.81D-04  NBF=   345
 NBsUse=   345 1.00D-06 EigRej= -1.00D+00 NBFU=   345
 ExpMin= 1.17D-01 ExpMax= 2.52D+04 ExpMxC= 3.78D+03 IAcc=3 IRadAn=         5 AccDes= 0.00D+00
 Harris functional with IExCor=  402 and IRadAn=       5 diagonalized for initial guess.
 HarFok:  IExCor=  402 AccDes= 0.00D+00 IRadAn=         5 IDoV= 1 UseB2=F ITyADJ=14
 ICtDFT=  3500011 ScaDFX=  1.000000  1.000000  1.000000  1.000000
 FoFCou: FMM=F IPFlag=           0 FMFlag=      100000 FMFlg1=           0
         NFxFlg=           0 DoJE=T BraDBF=F KetDBF=T FulRan=T
         wScrn=  0.000000 ICntrl=       500 IOpCl=  0 I1Cent=   200000004 NGrid=           0
         NMat0=    1 NMatS0=      1 NMatT0=    0 NMatD0=    1 NMtDS0=    0 NMtDT0=    0
 Petite list used in FoFCou.
 Requested convergence on RMS density matrix=1.00D-08 within 128 cycles.
 Requested convergence on MAX density matrix=1.00D-06.
 Requested convergence on             energy=1.00D-06.
 No special actions if energy rises.
 Integral accuracy reduced to 1.0D-05 until final iterations.
 Initial convergence to 1.0D-05 achieved.  Increase integral accuracy.
 SCF Done:  E(RB3LYP) =  -1807.85654646     A.U. after   16 cycles
            NFock= 16  Conv=0.51D-08     -V/T= 2.0069

 **********************************************************************

            Population analysis using the SCF density.

 **********************************************************************

 Orbital symmetries:
       Occupied  (A) (A) (A) (A) (A) (A) (A) (A) (A) (A) (A) (A)
                 (A) (A) (A) (A) (A) (A) (A) (A) (A) (A) (A) (A)
                 (A) (A) (A) (A) (A) (A) (A) (A) (A) (A) (A) (A)
                 (A) (A) (A) (A) (A) (A) (A) (A) (A) (A) (A) (A)
                 (A) (A) (A) (A) (A) (A) (A) (A) (A) (A) (A) (A)
                 (A) (A) (A) (A) (A) (A) (A) (A) (A) (A) (A) (A)
                 (A) (A) (A) (A) (A) (A) (A) (A) (A) (A) (A) (A)
                 (A)
       Virtual   (A) (A) (A) (A) (A) (A) (A) (A) (A) (A) (A) (A)
                 (A) (A) (A) (A) (A) (A) (A) (A) (A) (A) (A) (A)
                 (A) (A) (A) (A) (A) (A) (A) (A) (A) (A) (A) (A)
                 (A) (A) (A) (A) (A) (A) (A) (A) (A) (A) (A) (A)
                 (A) (A) (A) (A) (A) (A) (A) (A) (A) (A) (A) (A)
                 (A) (A) (A) (A) (A) (A) (A) (A) (A) (A) (A) (A)
                 (A) (A) (A) (A) (A) (A) (A) (A) (A) (A) (A) (A)
                 (A) (A) (A) (A) (A) (A) (A) (A) (A) (A) (A) (A)
                 (A) (A) (A) (A) (A) (A) (A) (A) (A) (A) (A) (A)
                 (A) (A) (A) (A) (A) (A) (A) (A) (A) (A) (A) (A)
                 (A) (A) (A) (A) (A) (A) (A) (A) (A) (A) (A) (A)
                 (A) (A) (A) (A) (A) (A) (A) (A) (A) (A) (A) (A)
                 (A) (A) (A) (A) (A) (A) (A) (A) (A) (A) (A) (A)
                 (A) (A) (A) (A) (A) (A) (A) (A) (A) (A) (A) (A)
                 (A) (A) (A) (A) (A) (A) (A) (A) (A) (A) (A) (A)
                 (A) (A) (A) (A) (A) (A) (A) (A) (A) (A) (A) (A)
                 (A) (A) (A) (A) (A) (A) (A) (A) (A) (A) (A) (A)
                 (A) (A) (A) (A) (A) (A) (A) (A) (A) (A) (A) (A)
                 (A) (A) (A) (A) (A) (A) (A) (A) (A) (A) (A) (A)
                 (A) (A) (A) (A) (A) (A) (A) (A) (A) (A) (A) (A)
                 (A) (A) (A) (A) (A) (A) (A) (A) (A) (A) (A) (A)
                 (A) (A) (A) (A) (A) (A) (A) (A)
 The electronic state is 1-A.
 Alpha  occ. eigenvalues -- -101.56614 -88.89011 -19.20995 -19.19870 -19.19766
 Alpha  occ. eigenvalues --  -19.14906 -19.12360 -14.37896 -14.33123 -10.34446
 Alpha  occ. eigenvalues --  -10.30221 -10.29179 -10.28590 -10.27113 -10.26523
 Alpha  occ. eigenvalues --  -10.25370 -10.24098 -10.23083 -10.22360 -10.21663
 Alpha  occ. eigenvalues --  -10.20754  -9.48153  -7.95167  -7.24574  -7.23563
 Alpha  occ. eigenvalues --   -7.23560  -5.91649  -5.91290  -5.90673  -1.08791
 Alpha  occ. eigenvalues --   -1.05840  -1.05511  -1.02048  -1.00226  -0.95449
 Alpha  occ. eigenvalues --   -0.91585  -0.89379  -0.85442  -0.79702  -0.78293
 Alpha  occ. eigenvalues --   -0.76006  -0.75067  -0.73376  -0.65530  -0.64554
 Alpha  occ. eigenvalues --   -0.63283  -0.62085  -0.58948  -0.58348  -0.56492
 Alpha  occ. eigenvalues --   -0.53671  -0.53111  -0.50486  -0.49209  -0.49158
 Alpha  occ. eigenvalues --   -0.48176  -0.47694  -0.46157  -0.45306  -0.44999
 Alpha  occ. eigenvalues --   -0.44353  -0.43539  -0.42097  -0.41483  -0.40764
 Alpha  occ. eigenvalues --   -0.40145  -0.39790  -0.38924  -0.38335  -0.37827
 Alpha  occ. eigenvalues --   -0.36856  -0.35990  -0.35841  -0.34819  -0.33832
 Alpha  occ. eigenvalues --   -0.32911  -0.32127  -0.31897  -0.27886  -0.26920
 Alpha  occ. eigenvalues --   -0.25677  -0.25386  -0.24703  -0.23885  -0.23108
 Alpha virt. eigenvalues --   -0.04884  -0.03142  -0.01836  -0.00746   0.00403
 Alpha virt. eigenvalues --    0.02160   0.03103   0.03628   0.03652   0.05662
 Alpha virt. eigenvalues --    0.06712   0.08988   0.10691   0.11562   0.11955
 Alpha virt. eigenvalues --    0.12937   0.14592   0.15269   0.15989   0.16853
 Alpha virt. eigenvalues --    0.19005   0.19847   0.20851   0.21579   0.21981
 Alpha virt. eigenvalues --    0.22545   0.23803   0.25545   0.27525   0.28611
 Alpha virt. eigenvalues --    0.29915   0.30517   0.30676   0.32671   0.33760
 Alpha virt. eigenvalues --    0.34917   0.36713   0.37564   0.38204   0.38808
 Alpha virt. eigenvalues --    0.39753   0.40996   0.41771   0.43583   0.46130
 Alpha virt. eigenvalues --    0.49844   0.50532   0.50937   0.51390   0.52264
 Alpha virt. eigenvalues --    0.52378   0.53250   0.53794   0.54488   0.55193
 Alpha virt. eigenvalues --    0.55569   0.56152   0.56852   0.57601   0.58680
 Alpha virt. eigenvalues --    0.58965   0.60157   0.60878   0.61131   0.62570
 Alpha virt. eigenvalues --    0.63032   0.64412   0.64842   0.65262   0.67946
 Alpha virt. eigenvalues --    0.68188   0.69707   0.71228   0.72188   0.72984
 Alpha virt. eigenvalues --    0.74525   0.75853   0.76742   0.77802   0.78892
 Alpha virt. eigenvalues --    0.79340   0.79762   0.80611   0.81881   0.82698
 Alpha virt. eigenvalues --    0.83118   0.83657   0.84566   0.84945   0.85308
 Alpha virt. eigenvalues --    0.85954   0.86200   0.87138   0.87764   0.88166
 Alpha virt. eigenvalues --    0.89168   0.90043   0.90900   0.91428   0.92182
 Alpha virt. eigenvalues --    0.92873   0.93619   0.95261   0.95783   0.96069
 Alpha virt. eigenvalues --    0.97382   0.97624   0.98750   1.00418   1.01233
 Alpha virt. eigenvalues --    1.02252   1.03943   1.04378   1.04906   1.06337
 Alpha virt. eigenvalues --    1.06862   1.07951   1.09089   1.09279   1.10598
 Alpha virt. eigenvalues --    1.12068   1.16242   1.17283   1.17576   1.20041
 Alpha virt. eigenvalues --    1.21543   1.23356   1.24373   1.25968   1.28536
 Alpha virt. eigenvalues --    1.31645   1.33359   1.34880   1.35185   1.35583
 Alpha virt. eigenvalues --    1.36521   1.38477   1.38836   1.39566   1.41578
 Alpha virt. eigenvalues --    1.42142   1.44927   1.45952   1.48413   1.49654
 Alpha virt. eigenvalues --    1.51477   1.52652   1.56496   1.58314   1.61459
 Alpha virt. eigenvalues --    1.62747   1.66282   1.66889   1.69435   1.69946
 Alpha virt. eigenvalues --    1.72153   1.72982   1.73128   1.73334   1.73932
 Alpha virt. eigenvalues --    1.74544   1.77175   1.78434   1.79514   1.81507
 Alpha virt. eigenvalues --    1.81873   1.83873   1.84038   1.84570   1.86071
 Alpha virt. eigenvalues --    1.86418   1.88071   1.89305   1.90044   1.90670
 Alpha virt. eigenvalues --    1.92235   1.94149   1.95123   1.95424   1.96393
 Alpha virt. eigenvalues --    1.97424   1.98570   1.98676   2.02084   2.03086
 Alpha virt. eigenvalues --    2.04684   2.05463   2.06831   2.10311   2.12690
 Alpha virt. eigenvalues --    2.15201   2.16442   2.18651   2.20931   2.21469
 Alpha virt. eigenvalues --    2.22083   2.23873   2.24436   2.27267   2.28206
 Alpha virt. eigenvalues --    2.29703   2.30723   2.32396   2.33887   2.34545
 Alpha virt. eigenvalues --    2.36348   2.38777   2.41725   2.44863   2.44901
 Alpha virt. eigenvalues --    2.48789   2.49663   2.51743   2.54030   2.56519
 Alpha virt. eigenvalues --    2.59469   2.59674   2.60621   2.61880   2.63234
 Alpha virt. eigenvalues --    2.64563   2.66598   2.71603   2.74106   2.76497
 Alpha virt. eigenvalues --    2.78854   2.79164   2.85124   2.87506   2.90396
 Alpha virt. eigenvalues --    2.90922   2.93001   2.97061   2.98355   2.99699
 Alpha virt. eigenvalues --    3.04857   3.07547   3.19229   3.35897   3.80540
 Alpha virt. eigenvalues --    3.91036   3.92119   3.92628   3.97414   3.98419
 Alpha virt. eigenvalues --    4.02700   4.06951   4.08535   4.09940   4.14813
 Alpha virt. eigenvalues --    4.17983   4.20373   4.27445   4.30809   4.37950
 Alpha virt. eigenvalues --    4.40242   4.48522   4.49986   4.66419   4.75754
          Condensed to atoms (all electrons):
               1          2          3          4          5          6
     1  O    8.239508   0.290926  -0.055008   0.004763   0.000137  -0.000000
     2  C    0.290926   4.518518   0.497172  -0.001345  -0.027639  -0.000232
     3  C   -0.055008   0.497172   5.126993   0.441716  -0.026151   0.008988
     4  C    0.004763  -0.001345   0.441716   4.991436   0.518317  -0.055495
     5  C    0.000137  -0.027639  -0.026151   0.518317   4.945724   0.280565
     6  C   -0.000000  -0.000232   0.008988  -0.055495   0.280565   5.103918
     7  N    0.000000   0.000010   0.000900  -0.000345  -0.068106   0.484648
     8  C   -0.000000  -0.000000  -0.000013  -0.000527   0.009824  -0.047517
     9  C   -0.000000   0.000000  -0.000001  -0.000049   0.000162   0.000461
    10  N    0.000000   0.000000  -0.000000  -0.000120  -0.000015   0.001115
    11  C   -0.000000  -0.000000   0.000000   0.000001  -0.000001   0.000005
    12  C   -0.000000   0.000000  -0.000000  -0.000001   0.000000  -0.000001
    13  O   -0.000000  -0.000000   0.000000   0.000000  -0.000000  -0.000000
    14  O    0.000000   0.000000   0.000000  -0.000001   0.000000  -0.000000
    15  O    0.000000   0.000000   0.000000   0.000000   0.000001  -0.000051
    16  C    0.000000   0.000000   0.000003   0.000045   0.002047  -0.034367
    17  S    0.000000  -0.000022  -0.000092   0.006570  -0.062448   0.244445
    18  C    0.001595  -0.012393  -0.049443  -0.016888   0.477876  -0.044756
    19  O   -0.000007   0.002952   0.000085   0.003467  -0.057228  -0.003999
    20  C   -0.056269   0.448958  -0.073480  -0.044511  -0.060808   0.009192
    21  Cl   0.006616  -0.056269   0.004775   0.000199   0.003536  -0.000103
    22  H    0.236114  -0.023758  -0.003571   0.000435  -0.000032  -0.000000
    23  H   -0.005861  -0.042843   0.353603  -0.032836   0.003384  -0.000200
    24  H   -0.000054   0.003630  -0.037322   0.355687  -0.037420  -0.009935
    25  H    0.000000  -0.000000   0.000001   0.000036  -0.000554  -0.003121
    26  H   -0.000000   0.000000   0.000012   0.000131  -0.000363   0.001367
    27  H   -0.000000  -0.000000  -0.000000   0.000001  -0.000000  -0.000002
    28  H    0.000000   0.000000  -0.000000  -0.000000   0.000000   0.000001
    29  H   -0.000000   0.000000   0.000000  -0.000000  -0.000000   0.000000
    30  H   -0.000000   0.000000  -0.000000  -0.000000  -0.000059   0.002717
    31  H   -0.000000  -0.000000   0.000000   0.000013  -0.000267   0.000418
    32  H   -0.000000   0.000405  -0.000011  -0.000084   0.004615  -0.000143
               7          8          9         10         11         12
     1  O    0.000000  -0.000000  -0.000000   0.000000  -0.000000  -0.000000
     2  C    0.000010  -0.000000   0.000000   0.000000  -0.000000   0.000000
     3  C    0.000900  -0.000013  -0.000001  -0.000000   0.000000  -0.000000
     4  C   -0.000345  -0.000527  -0.000049  -0.000120   0.000001  -0.000001
     5  C   -0.068106   0.009824   0.000162  -0.000015  -0.000001   0.000000
     6  C    0.484648  -0.047517   0.000461   0.001115   0.000005  -0.000001
     7  N    6.970514   0.241512  -0.053521   0.002818   0.000121  -0.000039
     8  C    0.241512   5.157981   0.345340  -0.097812   0.004745   0.000003
     9  C   -0.053521   0.345340   4.422337   0.224363  -0.019870   0.005121
    10  N    0.002818  -0.097812   0.224363   7.170592   0.251125  -0.019142
    11  C    0.000121   0.004745  -0.019870   0.251125   5.018136   0.291984
    12  C   -0.000039   0.000003   0.005121  -0.019142   0.291984   4.468485
    13  O    0.000000  -0.000001  -0.000081   0.000079  -0.069205   0.254992
    14  O    0.000000  -0.000001  -0.000115  -0.001647  -0.072874   0.528860
    15  O    0.001302  -0.060133   0.538648  -0.099979   0.012911   0.000818
    16  C   -0.061905   0.262974  -0.033375  -0.004263  -0.000028  -0.000012
    17  S   -0.090417  -0.066406   0.003478  -0.000104   0.000003   0.000001
    18  C    0.002019  -0.000059   0.000002  -0.000000   0.000000   0.000000
    19  O    0.000006  -0.000004   0.000000   0.000000   0.000000   0.000000
    20  C   -0.000140   0.000004  -0.000000  -0.000000   0.000000  -0.000000
    21  Cl   0.000000  -0.000000  -0.000000  -0.000000   0.000000  -0.000000
    22  H    0.000000  -0.000000  -0.000000   0.000000  -0.000000  -0.000000
    23  H   -0.000002   0.000000   0.000000  -0.000000   0.000000  -0.000000
    24  H    0.012091  -0.000742   0.000031   0.000392  -0.000005   0.000003
    25  H   -0.038630   0.348864  -0.032639   0.004318  -0.000068  -0.000000
    26  H    0.007693  -0.002451  -0.013603   0.289754  -0.036124   0.000109
    27  H   -0.000027   0.000248  -0.002284  -0.044064   0.376598  -0.028500
    28  H   -0.000001  -0.000047  -0.003867  -0.044843   0.345096  -0.025794
    29  H    0.000000  -0.000000   0.000006  -0.000087   0.005522  -0.003127
    30  H    0.004323  -0.017852  -0.000986   0.000207  -0.000005  -0.000000
    31  H    0.003716  -0.037510  -0.009542   0.007556  -0.000067  -0.000015
    32  H    0.000003  -0.000000  -0.000000   0.000000   0.000000  -0.000000
              13         14         15         16         17         18
     1  O   -0.000000   0.000000   0.000000   0.000000   0.000000   0.001595
     2  C   -0.000000   0.000000   0.000000   0.000000  -0.000022  -0.012393
     3  C    0.000000   0.000000   0.000000   0.000003  -0.000092  -0.049443
     4  C    0.000000  -0.000001   0.000000   0.000045   0.006570  -0.016888
     5  C   -0.000000   0.000000   0.000001   0.002047  -0.062448   0.477876
     6  C   -0.000000  -0.000000  -0.000051  -0.034367   0.244445  -0.044756
     7  N    0.000000   0.000000   0.001302  -0.061905  -0.090417   0.002019
     8  C   -0.000001  -0.000001  -0.060133   0.262974  -0.066406  -0.000059
     9  C   -0.000081  -0.000115   0.538648  -0.033375   0.003478   0.000002
    10  N    0.000079  -0.001647  -0.099979  -0.004263  -0.000104  -0.000000
    11  C   -0.069205  -0.072874   0.012911  -0.000028   0.000003   0.000000
    12  C    0.254992   0.528860   0.000818  -0.000012   0.000001   0.000000
    13  O    8.263992  -0.084402  -0.000000   0.000000  -0.000000  -0.000000
    14  O   -0.084402   8.070830  -0.000001   0.000000  -0.000000   0.000000
    15  O   -0.000000  -0.000001   8.108657   0.001910  -0.000133  -0.000000
    16  C    0.000000   0.000000   0.001910   5.416593   0.252546   0.000043
    17  S   -0.000000  -0.000000  -0.000133   0.252546  15.614699  -0.006963
    18  C   -0.000000   0.000000  -0.000000   0.000043  -0.006963   4.696721
    19  O   -0.000000   0.000000  -0.000000   0.000200   0.012415   0.290640
    20  C    0.000000  -0.000000  -0.000000   0.000001   0.000075   0.400672
    21  Cl   0.000000  -0.000000  -0.000000  -0.000000   0.000015  -0.065516
    22  H   -0.000000   0.000000   0.000000  -0.000000  -0.000000   0.000051
    23  H    0.000000  -0.000000   0.000000  -0.000000   0.000004   0.000617
    24  H   -0.000000   0.000005  -0.000000   0.000084   0.000570   0.005240
    25  H    0.000000  -0.000000   0.002959  -0.040418   0.010784   0.000011
    26  H    0.001064   0.001282   0.002765   0.001094  -0.000275  -0.000001
    27  H    0.002005  -0.000161   0.004179  -0.000006   0.000001  -0.000000
    28  H    0.004066   0.003396   0.004141   0.000016  -0.000000   0.000000
    29  H    0.217022   0.005873   0.000000  -0.000000  -0.000000  -0.000000
    30  H    0.000000  -0.000000   0.000252   0.354236  -0.033689  -0.000001
    31  H    0.000000   0.000000  -0.000181   0.349339  -0.051221   0.000008
    32  H    0.000000   0.000000   0.000000  -0.000006  -0.000128  -0.017485
              19         20         21         22         23         24
     1  O   -0.000007  -0.056269   0.006616   0.236114  -0.005861  -0.000054
     2  C    0.002952   0.448958  -0.056269  -0.023758  -0.042843   0.003630
     3  C    0.000085  -0.073480   0.004775  -0.003571   0.353603  -0.037322
     4  C    0.003467  -0.044511   0.000199   0.000435  -0.032836   0.355687
     5  C   -0.057228  -0.060808   0.003536  -0.000032   0.003384  -0.037420
     6  C   -0.003999   0.009192  -0.000103  -0.000000  -0.000200  -0.009935
     7  N    0.000006  -0.000140   0.000000   0.000000  -0.000002   0.012091
     8  C   -0.000004   0.000004  -0.000000  -0.000000   0.000000  -0.000742
     9  C    0.000000  -0.000000  -0.000000  -0.000000   0.000000   0.000031
    10  N    0.000000  -0.000000  -0.000000   0.000000  -0.000000   0.000392
    11  C    0.000000   0.000000   0.000000  -0.000000   0.000000  -0.000005
    12  C    0.000000  -0.000000  -0.000000  -0.000000  -0.000000   0.000003
    13  O   -0.000000   0.000000   0.000000  -0.000000   0.000000  -0.000000
    14  O    0.000000  -0.000000  -0.000000   0.000000  -0.000000   0.000005
    15  O   -0.000000  -0.000000  -0.000000   0.000000   0.000000  -0.000000
    16  C    0.000200   0.000001  -0.000000  -0.000000  -0.000000   0.000084
    17  S    0.012415   0.000075   0.000015  -0.000000   0.000004   0.000570
    18  C    0.290640   0.400672  -0.065516   0.000051   0.000617   0.005240
    19  O    8.265728  -0.070382  -0.004175   0.000000   0.000001  -0.000032
    20  C   -0.070382   5.409659   0.217170   0.005908   0.005430   0.000210
    21  Cl  -0.004175   0.217170  16.871362  -0.000266  -0.000150   0.000010
    22  H    0.000000   0.005908  -0.000266   0.357681   0.004367  -0.000005
    23  H    0.000001   0.005430  -0.000150   0.004367   0.584423  -0.005445
    24  H   -0.000032   0.000210   0.000010  -0.000005  -0.005445   0.541380
    25  H   -0.000001  -0.000000   0.000000   0.000000  -0.000000   0.000008
    26  H   -0.000000  -0.000000   0.000000  -0.000000  -0.000000   0.000632
    27  H   -0.000000   0.000000   0.000000  -0.000000   0.000000  -0.000003
    28  H   -0.000000  -0.000000  -0.000000   0.000000  -0.000000   0.000000
    29  H    0.000000  -0.000000   0.000000   0.000000  -0.000000   0.000000
    30  H    0.000001  -0.000000   0.000000  -0.000000   0.000000  -0.000000
    31  H   -0.000001   0.000000   0.000000   0.000000   0.000000  -0.000009
    32  H    0.232945  -0.007088   0.018368  -0.000000  -0.000000   0.000002
              25         26         27         28         29         30
     1  O    0.000000  -0.000000  -0.000000   0.000000  -0.000000  -0.000000
     2  C   -0.000000   0.000000  -0.000000   0.000000   0.000000   0.000000
     3  C    0.000001   0.000012  -0.000000  -0.000000   0.000000  -0.000000
     4  C    0.000036   0.000131   0.000001  -0.000000  -0.000000  -0.000000
     5  C   -0.000554  -0.000363  -0.000000   0.000000  -0.000000  -0.000059
     6  C   -0.003121   0.001367  -0.000002   0.000001   0.000000   0.002717
     7  N   -0.038630   0.007693  -0.000027  -0.000001   0.000000   0.004323
     8  C    0.348864  -0.002451   0.000248  -0.000047  -0.000000  -0.017852
     9  C   -0.032639  -0.013603  -0.002284  -0.003867   0.000006  -0.000986
    10  N    0.004318   0.289754  -0.044064  -0.044843  -0.000087   0.000207
    11  C   -0.000068  -0.036124   0.376598   0.345096   0.005522  -0.000005
    12  C   -0.000000   0.000109  -0.028500  -0.025794  -0.003127  -0.000000
    13  O    0.000000   0.001064   0.002005   0.004066   0.217022   0.000000
    14  O   -0.000000   0.001282  -0.000161   0.003396   0.005873  -0.000000
    15  O    0.002959   0.002765   0.004179   0.004141   0.000000   0.000252
    16  C   -0.040418   0.001094  -0.000006   0.000016  -0.000000   0.354236
    17  S    0.010784  -0.000275   0.000001  -0.000000  -0.000000  -0.033689
    18  C    0.000011  -0.000001  -0.000000   0.000000  -0.000000  -0.000001
    19  O   -0.000001  -0.000000  -0.000000  -0.000000   0.000000   0.000001
    20  C   -0.000000  -0.000000   0.000000  -0.000000  -0.000000  -0.000000
    21  Cl   0.000000   0.000000   0.000000  -0.000000   0.000000   0.000000
    22  H    0.000000  -0.000000  -0.000000   0.000000   0.000000  -0.000000
    23  H   -0.000000  -0.000000   0.000000  -0.000000  -0.000000   0.000000
    24  H    0.000008   0.000632  -0.000003   0.000000   0.000000  -0.000000
    25  H    0.555466   0.000159   0.000005  -0.000007   0.000000  -0.004130
    26  H    0.000159   0.400122   0.002740   0.003161  -0.000090  -0.000039
    27  H    0.000005   0.002740   0.519501  -0.037821  -0.000138   0.000000
    28  H   -0.000007   0.003161  -0.037821   0.569580  -0.000366  -0.000001
    29  H    0.000000  -0.000090  -0.000138  -0.000366   0.347889  -0.000000
    30  H   -0.004130  -0.000039   0.000000  -0.000001  -0.000000   0.530875
    31  H    0.005588   0.002431   0.000011  -0.000081   0.000000  -0.028876
    32  H    0.000000   0.000000  -0.000000   0.000000   0.000000  -0.000000
              31         32
     1  O   -0.000000  -0.000000
     2  C   -0.000000   0.000405
     3  C    0.000000  -0.000011
     4  C    0.000013  -0.000084
     5  C   -0.000267   0.004615
     6  C    0.000418  -0.000143
     7  N    0.003716   0.000003
     8  C   -0.037510  -0.000000
     9  C   -0.009542  -0.000000
    10  N    0.007556   0.000000
    11  C   -0.000067   0.000000
    12  C   -0.000015  -0.000000
    13  O    0.000000   0.000000
    14  O    0.000000   0.000000
    15  O   -0.000181   0.000000
    16  C    0.349339  -0.000006
    17  S   -0.051221  -0.000128
    18  C    0.000008  -0.017485
    19  O   -0.000001   0.232945
    20  C    0.000000  -0.007088
    21  Cl   0.000000   0.018368
    22  H    0.000000  -0.000000
    23  H    0.000000  -0.000000
    24  H   -0.000009   0.000002
    25  H    0.005588   0.000000
    26  H    0.002431   0.000000
    27  H    0.000011  -0.000000
    28  H   -0.000081   0.000000
    29  H    0.000000   0.000000
    30  H   -0.028876  -0.000000
    31  H    0.579479   0.000000
    32  H    0.000000   0.330646
 Mulliken charges:
               1
     1  O   -0.662462
     2  C    0.401931
     3  C   -0.189156
     4  C   -0.170614
     5  C    0.094901
     6  C    0.062081
     7  N   -0.418545
     8  C   -0.040420
     9  C    0.629983
    10  N   -0.640244
    11  C   -0.107999
    12  C    0.526256
    13  O   -0.589532
    14  O   -0.451045
    15  O   -0.518064
    16  C   -0.466750
    17  S    0.166295
    18  C    0.338011
    19  O   -0.672612
    20  C   -0.184601
    21  Cl   0.004427
    22  H    0.423076
    23  H    0.135510
    24  H    0.170998
    25  H    0.191369
    26  H    0.338429
    27  H    0.207716
    28  H    0.183369
    29  H    0.427495
    30  H    0.193027
    31  H    0.179210
    32  H    0.437959
 Sum of Mulliken charges =  -0.00000
 Mulliken charges with hydrogens summed into heavy atoms:
               1
     1  O   -0.239387
     2  C    0.401931
     3  C   -0.053647
     4  C    0.000384
     5  C    0.094901
     6  C    0.062081
     7  N   -0.418545
     8  C    0.150949
     9  C    0.629983
    10  N   -0.301815
    11  C    0.283087
    12  C    0.526256
    13  O   -0.162037
    14  O   -0.451045
    15  O   -0.518064
    16  C   -0.094514
    17  S    0.166295
    18  C    0.338011
    19  O   -0.234653
    20  C   -0.184601
    21  Cl   0.004427
 Electronic spatial extent (au):  <R**2>=           9950.9587
 Charge=              0.0000 electrons
 Dipole moment (field-independent basis, Debye):
    X=              1.5321    Y=              2.6633    Z=              3.2119  Tot=              4.4448
 Quadrupole moment (field-independent basis, Debye-Ang):
   XX=           -135.0234   YY=           -120.2743   ZZ=           -134.2591
   XY=             -2.2173   XZ=            -16.4728   YZ=             -0.4827
 Traceless Quadrupole moment (field-independent basis, Debye-Ang):
   XX=             -5.1712   YY=              9.5780   ZZ=             -4.4068
   XY=             -2.2173   XZ=            -16.4728   YZ=             -0.4827
 Octapole moment (field-independent basis, Debye-Ang**2):
  XXX=            -17.6023  YYY=             56.6448  ZZZ=             24.1647  XYY=             69.1340
  XXY=             39.0572  XXZ=             65.8029  XZZ=            -13.7058  YZZ=             30.7570
  YYZ=             21.2276  XYZ=            -31.6421
 Hexadecapole moment (field-independent basis, Debye-Ang**3):
 XXXX=          -9336.2340 YYYY=          -2273.9134 ZZZZ=           -562.5831 XXXY=           -460.6611
 XXXZ=           -259.4560 YYYX=            235.3759 YYYZ=             26.4680 ZZZX=            -94.4694
 ZZZY=             64.4305 XXYY=          -1779.6345 XXZZ=          -1615.7033 YYZZ=           -453.7644
 XXYZ=             16.0036 YYXZ=           -210.0570 ZZXY=           -133.8464
 N-N= 1.870642556094D+03 E-N=-7.997545831661D+03  KE= 1.795513662100D+03
 Calling FoFJK, ICntrl=      2127 FMM=F ISym2X=0 I1Cent= 0 IOpClX= 0 NMat=1 NMatS=1 NMatT=0.
 ***** Axes restored to original set *****
 -------------------------------------------------------------------
 Center     Atomic                   Forces (Hartrees/Bohr)
 Number     Number              X              Y              Z
 -------------------------------------------------------------------
      1        8           0.003645390   -0.001103151    0.000625069
      2        6           0.009508647    0.036082439    0.018587409
      3        6          -0.008642281   -0.007383765   -0.005373601
      4        6           0.011651546    0.001070909    0.003625960
      5        6          -0.000923781   -0.011706716   -0.008926780
      6        6          -0.016667819    0.011699820   -0.001291254
      7        7           0.018210410    0.012130063    0.007631050
      8        6           0.022784003   -0.002449027    0.004181415
      9        6          -0.068347099    0.023195839   -0.011925602
     10        7           0.036802371   -0.025383536   -0.017683187
     11        6          -0.013345418   -0.023593976   -0.013638392
     12        6           0.026657685    0.082468764    0.066015109
     13        8          -0.002442057   -0.010193247   -0.014441275
     14        8          -0.021909432   -0.060278635   -0.011833461
     15        8           0.033375499    0.002754983    0.040818862
     16        6          -0.017180178   -0.022351512    0.005230698
     17       16           0.009308465   -0.006378024   -0.000961455
     18        6           0.032606818   -0.021873683   -0.004007054
     19        8          -0.005170962    0.002348133    0.000738793
     20        6           0.003058848    0.003654911    0.002449051
     21       17          -0.006740718   -0.000774227   -0.002246197
     22        1          -0.014459666   -0.037546644   -0.021014181
     23        1           0.001261410    0.002065449    0.001468135
     24        1          -0.001555151   -0.003730258   -0.003247405
     25        1          -0.007689486    0.006311689    0.008963469
     26        1          -0.018994156    0.003741165   -0.021253813
     27        1           0.000665226   -0.006657371    0.011141361
     28        1           0.006053790    0.005742821   -0.002560658
     29        1           0.007684943    0.008448584   -0.042119548
     30        1           0.003564089    0.006898645    0.008810104
     31        1           0.002454828   -0.001514594   -0.009986803
     32        1          -0.025225768    0.034304155    0.012224182
 -------------------------------------------------------------------
 Cartesian Forces:  Max     0.082468764 RMS     0.020833546

 GradGradGradGradGradGradGradGradGradGradGradGradGradGradGradGradGradGrad
 Berny optimization.
 FormGI is forming the generalized inverse of G from B-inverse, IUseBI=4.
 Internal  Forces:  Max     0.065211995 RMS     0.014019414
 Search for a local minimum.
 Step number   1 out of a maximum of  171
 All quantities printed in internal units (Hartrees-Bohrs-Radians)
 Mixed Optimization -- RFO/linear search
 Second derivative matrix not updated -- first step.
 ITU=  0
     Eigenvalues ---    0.00562   0.00734   0.00822   0.00877   0.00936
     Eigenvalues ---    0.00980   0.01016   0.01074   0.01231   0.01338
     Eigenvalues ---    0.01657   0.01720   0.01729   0.01765   0.01809
     Eigenvalues ---    0.01891   0.01936   0.01991   0.02012   0.02053
     Eigenvalues ---    0.02083   0.02116   0.02145   0.04695   0.04970
     Eigenvalues ---    0.05194   0.05339   0.05965   0.06679   0.08126
     Eigenvalues ---    0.09710   0.10616   0.10843   0.13101   0.15997
     Eigenvalues ---    0.16000   0.16000   0.16000   0.16000   0.16000
     Eigenvalues ---    0.16039   0.20595   0.22000   0.22010   0.22478
     Eigenvalues ---    0.23855   0.24485   0.24653   0.24831   0.24990
     Eigenvalues ---    0.24994   0.24995   0.24997   0.24999   0.25000
     Eigenvalues ---    0.25000   0.25000   0.25000   0.26390   0.28691
     Eigenvalues ---    0.29322   0.32127   0.32281   0.32413   0.32438
     Eigenvalues ---    0.32486   0.32541   0.32827   0.34136   0.35602
     Eigenvalues ---    0.35674   0.36761   0.37109   0.40302   0.40419
     Eigenvalues ---    0.40818   0.41152   0.43865   0.44982   0.45255
     Eigenvalues ---    0.45420   0.45477   0.45683   0.46090   0.46215
     Eigenvalues ---    0.46551   0.47116   0.66307   0.79273   0.79646
 RFO step:  Lambda=-7.55136671D-02 EMin= 5.61987432D-03
 Linear search not attempted -- first point.
 Maximum step size (   0.300) exceeded in Quadratic search.
    -- Step size scaled by   0.654
 Iteration  1 RMS(Cart)=  0.05260014 RMS(Int)=  0.00113763
 Iteration  2 RMS(Cart)=  0.00124477 RMS(Int)=  0.00003649
 Iteration  3 RMS(Cart)=  0.00000268 RMS(Int)=  0.00003644
 Iteration  4 RMS(Cart)=  0.00000000 RMS(Int)=  0.00003644
 Variable       Old X    -DE/DX   Delta X   Delta X   Delta X     New X
                                 (Linear)    (Quad)   (Total)
    R1        2.63515  -0.03684   0.00000  -0.04452  -0.04452   2.59062
    R2        1.91491  -0.04001   0.00000  -0.04939  -0.04939   1.86552
    R3        2.64111   0.00182   0.00000   0.00262   0.00261   2.64372
    R4        2.64952  -0.00689   0.00000  -0.00846  -0.00846   2.64106
    R5        2.63421  -0.00398   0.00000  -0.00447  -0.00447   2.62974
    R6        2.04594   0.00219   0.00000   0.00331   0.00331   2.04926
    R7        2.65710  -0.00485   0.00000  -0.00614  -0.00614   2.65095
    R8        2.04708  -0.00001   0.00000  -0.00002  -0.00002   2.04706
    R9        2.80401  -0.00512   0.00000  -0.00803  -0.00803   2.79598
   R10        2.67161  -0.00988   0.00000  -0.01310  -0.01309   2.65852
   R11        2.43943  -0.01225   0.00000  -0.01076  -0.01076   2.42867
   R12        3.38388   0.00733   0.00000   0.01429   0.01431   3.39819
   R13        2.74171   0.01117   0.00000   0.01511   0.01510   2.75681
   R14        2.83911   0.00889   0.00000   0.01465   0.01465   2.85377
   R15        2.89081   0.01416   0.00000   0.02518   0.02518   2.91599
   R16        2.10332  -0.01056   0.00000  -0.01733  -0.01733   2.08599
   R17        2.71145  -0.05581   0.00000  -0.07625  -0.07625   2.63519
   R18        2.38310  -0.05244   0.00000  -0.03949  -0.03949   2.34361
   R19        2.76208  -0.00626   0.00000  -0.00924  -0.00924   2.75285
   R20        1.97688  -0.02853   0.00000  -0.03889  -0.03889   1.93800
   R21        2.82657   0.00510   0.00000   0.00827   0.00827   2.83483
   R22        2.10049  -0.01227   0.00000  -0.02006  -0.02006   2.08043
   R23        2.09963  -0.00806   0.00000  -0.01316  -0.01316   2.08647
   R24        2.62893  -0.04337   0.00000  -0.05187  -0.05187   2.57706
   R25        2.38107  -0.06521   0.00000  -0.04890  -0.04890   2.33217
   R26        1.91426  -0.03670   0.00000  -0.04525  -0.04525   1.86900
   R27        3.43665   0.00413   0.00000   0.00949   0.00949   3.44614
   R28        2.09866  -0.01128   0.00000  -0.01840  -0.01840   2.08026
   R29        2.10095  -0.01003   0.00000  -0.01641  -0.01641   2.08454
   R30        2.64030  -0.04356   0.00000  -0.05310  -0.05310   2.58720
   R31        2.66880  -0.01012   0.00000  -0.01328  -0.01327   2.65553
   R32        1.91191  -0.03755   0.00000  -0.04613  -0.04613   1.86578
   R33        3.33036  -0.00610   0.00000  -0.01081  -0.01081   3.31955
    A1        2.12242  -0.04105   0.00000  -0.11396  -0.11396   2.00846
    A2        2.09607   0.01457   0.00000   0.02890   0.02891   2.12498
    A3        2.09420  -0.01254   0.00000  -0.02557  -0.02556   2.06864
    A4        2.09291  -0.00203   0.00000  -0.00333  -0.00334   2.08957
    A5        2.09997  -0.00208   0.00000  -0.00329  -0.00331   2.09666
    A6        2.09780  -0.00078   0.00000  -0.00341  -0.00340   2.09439
    A7        2.08541   0.00286   0.00000   0.00671   0.00672   2.09212
    A8        2.10686   0.00246   0.00000   0.00590   0.00589   2.11275
    A9        2.07020   0.00397   0.00000   0.01151   0.01151   2.08172
   A10        2.10597  -0.00642   0.00000  -0.01735  -0.01735   2.08863
   A11        2.07936   0.00161   0.00000   0.00364   0.00364   2.08300
   A12        2.07968  -0.00432   0.00000  -0.00950  -0.00949   2.07020
   A13        2.12412   0.00271   0.00000   0.00586   0.00585   2.12998
   A14        2.11211  -0.00192   0.00000  -0.00231  -0.00241   2.10970
   A15        2.15002  -0.00632   0.00000  -0.01114  -0.01124   2.13878
   A16        2.01156   0.00867   0.00000   0.01644   0.01642   2.02798
   A17        2.00835  -0.00737   0.00000  -0.01963  -0.01960   1.98876
   A18        1.92872   0.00041   0.00000   0.00487   0.00480   1.93352
   A19        1.86523   0.00478   0.00000   0.01630   0.01623   1.88146
   A20        1.89202  -0.00050   0.00000   0.00044   0.00029   1.89231
   A21        1.95444  -0.00126   0.00000  -0.00026  -0.00035   1.95409
   A22        1.91940  -0.00540   0.00000  -0.02723  -0.02721   1.89219
   A23        1.90224   0.00229   0.00000   0.00723   0.00710   1.90933
   A24        2.10329  -0.01967   0.00000  -0.03953  -0.03953   2.06376
   A25        2.08258   0.01710   0.00000   0.03434   0.03434   2.11692
   A26        2.09703   0.00257   0.00000   0.00516   0.00516   2.10219
   A27        2.11900  -0.00720   0.00000  -0.01594  -0.01595   2.10306
   A28        2.07229   0.00322   0.00000   0.00692   0.00691   2.07920
   A29        2.09189   0.00398   0.00000   0.00904   0.00903   2.10092
   A30        1.93050  -0.00431   0.00000  -0.00957  -0.00958   1.92092
   A31        1.91193   0.00394   0.00000   0.00968   0.00959   1.92153
   A32        1.91095   0.00011   0.00000   0.00142   0.00143   1.91238
   A33        1.91130  -0.00327   0.00000  -0.01399  -0.01396   1.89733
   A34        1.90517   0.00457   0.00000   0.01467   0.01471   1.91988
   A35        1.89357  -0.00099   0.00000  -0.00207  -0.00205   1.89152
   A36        2.09202  -0.03420   0.00000  -0.06863  -0.06863   2.02338
   A37        2.09544   0.01710   0.00000   0.03441   0.03440   2.12985
   A38        2.09498   0.01711   0.00000   0.03443   0.03443   2.12941
   A39        2.10911  -0.04520   0.00000  -0.12549  -0.12549   1.98362
   A40        1.85790  -0.00702   0.00000  -0.01551  -0.01547   1.84243
   A41        1.93694   0.00482   0.00000   0.01257   0.01253   1.94947
   A42        1.94548   0.00049   0.00000   0.00119   0.00123   1.94671
   A43        1.92626   0.00074   0.00000   0.00012   0.00019   1.92645
   A44        1.88758   0.00374   0.00000   0.00968   0.00966   1.89725
   A45        1.90865  -0.00280   0.00000  -0.00811  -0.00812   1.90053
   A46        1.53507   0.00056   0.00000   0.00206   0.00209   1.53716
   A47        2.08728  -0.01117   0.00000  -0.02179  -0.02180   2.06548
   A48        2.09069   0.00616   0.00000   0.01111   0.01112   2.10181
   A49        2.10505   0.00503   0.00000   0.01076   0.01075   2.11580
   A50        2.15077  -0.04491   0.00000  -0.12469  -0.12469   2.02609
   A51        2.09600  -0.00018   0.00000  -0.00085  -0.00084   2.09516
   A52        2.07331   0.00629   0.00000   0.01287   0.01287   2.08618
   A53        2.11386  -0.00611   0.00000  -0.01202  -0.01203   2.10183
    D1        0.00113  -0.00015   0.00000  -0.00109  -0.00110   0.00004
    D2        3.14069  -0.00004   0.00000  -0.00020  -0.00019   3.14050
    D3       -3.13687  -0.00009   0.00000  -0.00034  -0.00032  -3.13719
    D4       -0.00004   0.00006   0.00000   0.00053   0.00055   0.00051
    D5        0.00676  -0.00019   0.00000  -0.00121  -0.00121   0.00554
    D6       -3.13960  -0.00004   0.00000  -0.00034  -0.00034  -3.13994
    D7       -3.14056  -0.00007   0.00000  -0.00033  -0.00031  -3.14087
    D8       -0.00578  -0.00008   0.00000  -0.00018  -0.00016  -0.00593
    D9       -0.00100   0.00006   0.00000   0.00061   0.00062  -0.00039
   D10        3.13379   0.00005   0.00000   0.00075   0.00077   3.13455
   D11        0.00423   0.00006   0.00000   0.00022   0.00021   0.00444
   D12        3.12724   0.00057   0.00000   0.00393   0.00396   3.13120
   D13       -3.13263  -0.00008   0.00000  -0.00063  -0.00064  -3.13327
   D14       -0.00962   0.00043   0.00000   0.00309   0.00312  -0.00650
   D15        3.12726   0.00014   0.00000   0.00093   0.00093   3.12819
   D16       -0.02069   0.00024   0.00000   0.00149   0.00149  -0.01920
   D17        0.00463  -0.00049   0.00000  -0.00318  -0.00315   0.00149
   D18        3.13987  -0.00039   0.00000  -0.00262  -0.00259   3.13728
   D19        0.45462   0.00001   0.00000  -0.00314  -0.00321   0.45141
   D20       -2.53224  -0.00418   0.00000  -0.02885  -0.02877  -2.56101
   D21       -2.68045  -0.00006   0.00000  -0.00365  -0.00373  -2.68418
   D22        0.61587  -0.00426   0.00000  -0.02936  -0.02929   0.58658
   D23       -3.09567  -0.00107   0.00000  -0.00691  -0.00686  -3.10254
   D24        0.02619  -0.00028   0.00000  -0.00195  -0.00194   0.02425
   D25        0.03940  -0.00097   0.00000  -0.00634  -0.00631   0.03309
   D26       -3.12192  -0.00018   0.00000  -0.00138  -0.00138  -3.12330
   D27       -3.03569  -0.00339   0.00000  -0.02324  -0.02336  -3.05905
   D28       -0.03719  -0.00071   0.00000  -0.00166  -0.00158  -0.03877
   D29        2.74814   0.00237   0.00000   0.02241   0.02246   2.77060
   D30       -0.24689  -0.00082   0.00000  -0.00057  -0.00058  -0.24747
   D31        2.50094   0.00337   0.00000   0.01656   0.01661   2.51755
   D32        0.37034   0.00164   0.00000   0.00370   0.00365   0.37399
   D33       -1.67763  -0.00333   0.00000  -0.01366  -0.01367  -1.69130
   D34       -0.82521  -0.00211   0.00000  -0.00442  -0.00442  -0.82963
   D35        2.34172  -0.00188   0.00000  -0.00310  -0.00309   2.33863
   D36        1.25206   0.00337   0.00000   0.01921   0.01916   1.27122
   D37       -1.86419   0.00361   0.00000   0.02052   0.02049  -1.84370
   D38       -2.91339   0.00169   0.00000   0.00932   0.00935  -2.90404
   D39        0.25354   0.00192   0.00000   0.01064   0.01068   0.26422
   D40       -0.51939  -0.00072   0.00000  -0.00198  -0.00199  -0.52138
   D41       -2.61593  -0.00002   0.00000   0.00032   0.00034  -2.61559
   D42        1.53520  -0.00017   0.00000   0.00101   0.00102   1.53622
   D43       -2.63374  -0.00361   0.00000  -0.01850  -0.01855  -2.65229
   D44        1.55290  -0.00291   0.00000  -0.01620  -0.01621   1.53669
   D45       -0.57915  -0.00306   0.00000  -0.01551  -0.01553  -0.59469
   D46        1.52184   0.00246   0.00000   0.01106   0.01110   1.53295
   D47       -0.57470   0.00316   0.00000   0.01336   0.01344  -0.56126
   D48       -2.70675   0.00301   0.00000   0.01406   0.01411  -2.69264
   D49       -3.14020   0.00074   0.00000   0.00580   0.00579  -3.13442
   D50       -0.00127   0.00180   0.00000   0.01388   0.01387   0.01260
   D51       -0.02416   0.00072   0.00000   0.00489   0.00490  -0.01926
   D52        3.11477   0.00178   0.00000   0.01297   0.01298   3.12775
   D53       -3.13986   0.00266   0.00000   0.01184   0.01186  -3.12800
   D54       -1.03141  -0.00160   0.00000  -0.00538  -0.00540  -1.03681
   D55        1.04312  -0.00037   0.00000  -0.00125  -0.00124   1.04188
   D56        0.00442   0.00159   0.00000   0.00367   0.00368   0.00811
   D57        2.11287  -0.00266   0.00000  -0.01355  -0.01358   2.09929
   D58       -2.09579  -0.00144   0.00000  -0.00942  -0.00941  -2.10520
   D59       -1.54893  -0.00062   0.00000  -0.00660  -0.00655  -1.55548
   D60        1.55130   0.00025   0.00000  -0.00002   0.00003   1.55133
   D61        2.62543  -0.00065   0.00000  -0.00347  -0.00353   2.62190
   D62       -0.55753   0.00022   0.00000   0.00312   0.00306  -0.55447
   D63        0.55473  -0.00024   0.00000  -0.00142  -0.00140   0.55332
   D64       -2.62823   0.00063   0.00000   0.00517   0.00518  -2.62305
   D65        3.12070   0.00054   0.00000   0.00405   0.00405   3.12475
   D66        0.02046  -0.00033   0.00000  -0.00253  -0.00253   0.01793
   D67        0.42544  -0.00177   0.00000  -0.00500  -0.00496   0.42047
   D68        2.52886   0.00021   0.00000   0.00083   0.00089   2.52976
   D69       -1.66709  -0.00048   0.00000  -0.00303  -0.00296  -1.67005
   D70        3.13148   0.00097   0.00000   0.00651   0.00649   3.13798
   D71        0.00978   0.00017   0.00000   0.00151   0.00153   0.01131
   D72       -0.01557   0.00011   0.00000   0.00084   0.00084  -0.01474
   D73        3.13299   0.00007   0.00000   0.00059   0.00058   3.13357
   D74        3.10609   0.00072   0.00000   0.00548   0.00553   3.11162
   D75       -0.02853   0.00067   0.00000   0.00523   0.00528  -0.02326
         Item               Value     Threshold  Converged?
 Maximum Force            0.065212     0.000450     NO 
 RMS     Force            0.014019     0.000300     NO 
 Maximum Displacement     0.237433     0.001800     NO 
 RMS     Displacement     0.052799     0.001200     NO 
 Predicted change in Energy=-3.688880D-02
 GradGradGradGradGradGradGradGradGradGradGradGradGradGradGradGradGradGrad

                          Input orientation:                          
 ---------------------------------------------------------------------
 Center     Atomic      Atomic             Coordinates (Angstroms)
 Number     Number       Type             X           Y           Z
 ---------------------------------------------------------------------
      1          8           0        5.178260    2.003943    1.436521
      2          6           0        4.124893    1.325538    0.880151
      3          6           0        2.841441    1.879118    0.821037
      4          6           0        1.795243    1.158238    0.253283
      5          6           0        2.000514   -0.129864   -0.263027
      6          6           0        0.857632   -0.869309   -0.842824
      7          7           0       -0.152444   -0.243681   -1.332790
      8          6           0       -1.238086   -1.117630   -1.763843
      9          6           0       -2.579479   -0.477004   -1.497733
     10          7           0       -2.804256    0.086408   -0.242094
     11          6           0       -4.083526    0.709210    0.070461
     12          6           0       -4.063620    1.251903    1.468845
     13          8           0       -4.457000    0.389177    2.448993
     14          8           0       -3.678427    2.396905    1.721187
     15          8           0       -3.473273   -0.472964   -2.357483
     16          6           0       -1.083634   -2.462341   -1.022910
     17         16           0        0.705915   -2.657680   -0.731481
     18          6           0        3.296560   -0.675197   -0.217777
     19          8           0        3.500171   -1.913500   -0.765088
     20          6           0        4.353263    0.048342    0.360657
     21         17           0        5.969065   -0.637521    0.427977
     22          1           0        4.960254    2.900902    1.786500
     23          1           0        2.659533    2.870385    1.221371
     24          1           0        0.804967    1.596321    0.223520
     25          1           0       -1.140880   -1.284619   -2.850661
     26          1           0       -2.055103    0.061057    0.457813
     27          1           0       -4.281355    1.537667   -0.627063
     28          1           0       -4.892536   -0.034816   -0.034404
     29          1           0       -4.416625    0.776451    3.358156
     30          1           0       -1.468670   -3.302839   -1.620509
     31          1           0       -1.601361   -2.449865   -0.048940
     32          1           0        4.422463   -2.262735   -0.717845
 ---------------------------------------------------------------------
                    Distance matrix (angstroms):
                    1          2          3          4          5
     1  O    0.000000
     2  C    1.370899   0.000000
     3  C    2.419737   1.398997   0.000000
     4  C    3.682401   2.418310   1.391598   0.000000
     5  C    4.188038   2.817452   2.432768   1.402825   0.000000
     6  C    5.667347   4.296626   3.775948   2.488275   1.479569
     7  N    6.413837   5.065093   4.255420   2.876541   2.406778
     8  C    7.820234   6.459204   5.683718   4.295283   3.703602
     9  C    8.657221   7.338399   6.349361   4.987812   4.756191
[...]
 Alpha virt. eigenvalues --    2.19523   2.20810   2.22972   2.24435   2.26084
 Alpha virt. eigenvalues --    2.26667   2.29034   2.29133   2.30599   2.31945
 Alpha virt. eigenvalues --    2.32258   2.35311   2.37783   2.40544   2.41103
 Alpha virt. eigenvalues --    2.42088   2.42991   2.44517   2.45473   2.47205
 Alpha virt. eigenvalues --    2.49039   2.51979   2.53516   2.55619   2.57037
 Alpha virt. eigenvalues --    2.61043   2.62760   2.63485   2.65129   2.67829
 Alpha virt. eigenvalues --    2.69672   2.71907   2.73369   2.73977   2.75662
 Alpha virt. eigenvalues --    2.79427   2.83217   2.88591   2.91060   2.93327
 Alpha virt. eigenvalues --    2.95361   2.95856   2.99046   3.01488   3.05709
 Alpha virt. eigenvalues --    3.10181   3.18835   3.22574   3.38481   3.82192
 Alpha virt. eigenvalues --    3.92596   3.94280   3.97158   3.99308   4.02793
 Alpha virt. eigenvalues --    4.07813   4.10740   4.11398   4.15482   4.18718
 Alpha virt. eigenvalues --    4.20644   4.22121   4.27710   4.31948   4.41411
 Alpha virt. eigenvalues --    4.43603   4.49714   4.52997   4.66520   4.77286
          Condensed to atoms (all electrons):
               1          2          3          4          5          6
     1  O    8.171755   0.317521  -0.059651   0.004304   0.000215  -0.000000
     2  C    0.317521   4.538955   0.486273   0.001082  -0.026402  -0.000314
     3  C   -0.059651   0.486273   5.160705   0.446479  -0.025942   0.009973
     4  C    0.004304   0.001082   0.446479   5.003705   0.516531  -0.058576
     5  C    0.000215  -0.026402  -0.025942   0.516531   4.926277   0.299463
     6  C   -0.000000  -0.000314   0.009973  -0.058576   0.299463   5.057771
     7  N    0.000000   0.000009   0.001072  -0.003501  -0.067088   0.498322
     8  C   -0.000000   0.000000  -0.000018  -0.000351   0.009570  -0.055327
     9  C   -0.000000   0.000000  -0.000000  -0.000044   0.000057   0.001743
    10  N    0.000000   0.000000  -0.000001  -0.000059   0.000053   0.001094
    11  C    0.000000  -0.000000   0.000000   0.000004  -0.000002  -0.000030
    12  C    0.000000   0.000000  -0.000000  -0.000003   0.000001  -0.000003
    13  O    0.000000   0.000000   0.000000  -0.000000   0.000000  -0.000000
    14  O   -0.000000   0.000000   0.000000  -0.000115   0.000003  -0.000008
    15  O   -0.000000  -0.000000   0.000000   0.000000   0.000000  -0.000015
    16  C    0.000000   0.000000   0.000002   0.000002   0.002727  -0.021582
    17  S    0.000000  -0.000047  -0.000003   0.007011  -0.063848   0.259342
    18  C    0.001750  -0.011799  -0.054999  -0.022771   0.467339  -0.051596
    19  O   -0.000010   0.002909   0.000179   0.004032  -0.058953  -0.007628
    20  C   -0.061125   0.448847  -0.078896  -0.043135  -0.063349   0.009345
    21  Cl   0.006344  -0.055740   0.004830   0.000270   0.004357  -0.000115
    22  H    0.245722  -0.031071  -0.006546   0.000572  -0.000048  -0.000001
    23  H   -0.005293  -0.045868   0.349715  -0.028328   0.002809  -0.000197
    24  H   -0.000048   0.003441  -0.040121   0.350474  -0.032391  -0.015586
    25  H    0.000000  -0.000000   0.000001   0.000052  -0.000417  -0.003040
    26  H   -0.000000   0.000000   0.000023  -0.000209  -0.000520  -0.000421
    27  H   -0.000000   0.000000   0.000000  -0.000000  -0.000000   0.000000
    28  H    0.000000  -0.000000  -0.000000  -0.000000   0.000000   0.000001
    29  H   -0.000000  -0.000000  -0.000000   0.000000  -0.000000   0.000000
    30  H   -0.000000  -0.000000  -0.000000  -0.000000  -0.000061   0.001969
    31  H   -0.000000  -0.000000   0.000000   0.000004  -0.000174   0.000305
    32  H    0.000000   0.001050  -0.000029  -0.000188   0.006590  -0.000054
               7          8          9         10         11         12
     1  O    0.000000  -0.000000  -0.000000   0.000000   0.000000   0.000000
     2  C    0.000009   0.000000   0.000000   0.000000  -0.000000   0.000000
     3  C    0.001072  -0.000018  -0.000000  -0.000001   0.000000  -0.000000
     4  C   -0.003501  -0.000351  -0.000044  -0.000059   0.000004  -0.000003
     5  C   -0.067088   0.009570   0.000057   0.000053  -0.000002   0.000001
     6  C    0.498322  -0.055327   0.001743   0.001094  -0.000030  -0.000003
     7  N    6.961547   0.251284  -0.044959  -0.010016   0.000588  -0.000142
     8  C    0.251284   5.196565   0.330291  -0.117314   0.007653   0.000062
     9  C   -0.044959   0.330291   4.356166   0.285543  -0.025765   0.005366
    10  N   -0.010016  -0.117314   0.285543   7.163984   0.240972  -0.029630
    11  C    0.000588   0.007653  -0.025765   0.240972   5.120155   0.303233
    12  C   -0.000142   0.000062   0.005366  -0.029630   0.303233   4.344395
    13  O   -0.000000   0.000000  -0.000034   0.001740  -0.092667   0.285492
    14  O   -0.000117  -0.000032   0.000451  -0.006096  -0.084827   0.579199
    15  O    0.001761  -0.081221   0.577550  -0.101022   0.008878   0.000683
    16  C   -0.060262   0.283678  -0.029394   0.003130  -0.000087   0.000001
    17  S   -0.086932  -0.069074   0.002886   0.000030   0.000012  -0.000001
    18  C    0.003381  -0.000089   0.000002  -0.000000  -0.000000   0.000000
    19  O    0.000056  -0.000004   0.000000   0.000000   0.000000   0.000000
    20  C   -0.000158   0.000004  -0.000000  -0.000000   0.000000  -0.000000
    21  Cl   0.000000  -0.000000   0.000000  -0.000000   0.000000  -0.000000
    22  H    0.000000  -0.000000  -0.000000   0.000000   0.000000  -0.000000
    23  H    0.000005   0.000000  -0.000000  -0.000000   0.000000  -0.000000
    24  H    0.016042  -0.000542  -0.000022  -0.000067  -0.000016   0.000019
    25  H   -0.041100   0.348505  -0.035081  -0.001535  -0.000193  -0.000006
    26  H    0.034333  -0.011073  -0.013396   0.270369  -0.040707  -0.000947
    27  H    0.000000  -0.000321  -0.001680  -0.040884   0.364118  -0.026177
    28  H   -0.000063   0.000504  -0.000643  -0.045340   0.361920  -0.019278
    29  H    0.000000  -0.000000   0.000003  -0.000207   0.010308  -0.005658
    30  H    0.003770  -0.010871  -0.002430  -0.000058   0.000001  -0.000000
    31  H    0.002867  -0.037752  -0.002909   0.000369  -0.000036  -0.000001
    32  H    0.000004   0.000000  -0.000000  -0.000000  -0.000000  -0.000000
              13         14         15         16         17         18
     1  O    0.000000  -0.000000  -0.000000   0.000000   0.000000   0.001750
     2  C    0.000000   0.000000  -0.000000   0.000000  -0.000047  -0.011799
     3  C    0.000000   0.000000   0.000000   0.000002  -0.000003  -0.054999
     4  C   -0.000000  -0.000115   0.000000   0.000002   0.007011  -0.022771
     5  C    0.000000   0.000003   0.000000   0.002727  -0.063848   0.467339
     6  C   -0.000000  -0.000008  -0.000015  -0.021582   0.259342  -0.051596
     7  N   -0.000000  -0.000117   0.001761  -0.060262  -0.086932   0.003381
     8  C    0.000000  -0.000032  -0.081221   0.283678  -0.069074  -0.000089
     9  C   -0.000034   0.000451   0.577550  -0.029394   0.002886   0.000002
    10  N    0.001740  -0.006096  -0.101022   0.003130   0.000030  -0.000000
    11  C   -0.092667  -0.084827   0.008878  -0.000087   0.000012  -0.000000
    12  C    0.285492   0.579199   0.000683   0.000001  -0.000001   0.000000
    13  O    8.224171  -0.081866  -0.000000  -0.000000   0.000000   0.000000
    14  O   -0.081866   8.018927  -0.000003   0.000000   0.000000   0.000000
    15  O   -0.000000  -0.000003   8.097400   0.006211   0.000361  -0.000000
    16  C   -0.000000   0.000000   0.006211   5.346087   0.241894   0.000114
    17  S    0.000000   0.000000   0.000361   0.241894  15.605414  -0.008452
    18  C    0.000000   0.000000  -0.000000   0.000114  -0.008452   4.740843
    19  O    0.000000   0.000000   0.000000   0.000276   0.007910   0.310469
    20  C   -0.000000  -0.000000   0.000000   0.000001   0.000377   0.404941
    21  Cl  -0.000000  -0.000000  -0.000000  -0.000000   0.000014  -0.069487
    22  H    0.000000   0.000000  -0.000000  -0.000000   0.000000   0.000078
    23  H   -0.000000  -0.000001  -0.000000  -0.000000   0.000004   0.000774
    24  H    0.000000   0.000694  -0.000000   0.000053   0.000472   0.006582
    25  H   -0.000000  -0.000000   0.000945  -0.040417   0.010569   0.000004
    26  H    0.000510   0.023709   0.002666   0.000954   0.000352   0.000000
    27  H    0.003130   0.000738   0.001589  -0.000010   0.000000  -0.000000
    28  H    0.002143   0.000816   0.008415   0.000021  -0.000002   0.000000
    29  H    0.218193   0.009997   0.000000   0.000000  -0.000000  -0.000000
    30  H    0.000000   0.000000   0.000574   0.357630  -0.034162   0.000000
    31  H   -0.000000   0.000000   0.004267   0.360698  -0.042814  -0.000001
    32  H   -0.000000   0.000000  -0.000000  -0.000008   0.000334  -0.026362
              19         20         21         22         23         24
     1  O   -0.000010  -0.061125   0.006344   0.245722  -0.005293  -0.000048
     2  C    0.002909   0.448847  -0.055740  -0.031071  -0.045868   0.003441
     3  C    0.000179  -0.078896   0.004830  -0.006546   0.349715  -0.040121
     4  C    0.004032  -0.043135   0.000270   0.000572  -0.028328   0.350474
     5  C   -0.058953  -0.063349   0.004357  -0.000048   0.002809  -0.032391
     6  C   -0.007628   0.009345  -0.000115  -0.000001  -0.000197  -0.015586
     7  N    0.000056  -0.000158   0.000000   0.000000   0.000005   0.016042
     8  C   -0.000004   0.000004  -0.000000  -0.000000   0.000000  -0.000542
     9  C    0.000000  -0.000000   0.000000  -0.000000  -0.000000  -0.000022
    10  N    0.000000  -0.000000  -0.000000   0.000000  -0.000000  -0.000067
    11  C    0.000000   0.000000   0.000000   0.000000   0.000000  -0.000016
    12  C    0.000000  -0.000000  -0.000000  -0.000000  -0.000000   0.000019
    13  O    0.000000  -0.000000  -0.000000   0.000000  -0.000000   0.000000
    14  O    0.000000  -0.000000  -0.000000   0.000000  -0.000001   0.000694
    15  O    0.000000   0.000000  -0.000000  -0.000000  -0.000000  -0.000000
    16  C    0.000276   0.000001  -0.000000  -0.000000  -0.000000   0.000053
    17  S    0.007910   0.000377   0.000014   0.000000   0.000004   0.000472
    18  C    0.310469   0.404941  -0.069487   0.000078   0.000774   0.006582
    19  O    8.225218  -0.075934  -0.010875   0.000001   0.000002  -0.000047
    20  C   -0.075934   5.445734   0.208271   0.008705   0.005392   0.000281
    21  Cl  -0.010875   0.208271  16.869747  -0.000274  -0.000158   0.000010
    22  H    0.000001   0.008705  -0.000274   0.356590   0.006767  -0.000009
    23  H    0.000002   0.005392  -0.000158   0.006767   0.585312  -0.005104
    24  H   -0.000047   0.000281   0.000010  -0.000009  -0.005104   0.535918
    25  H   -0.000001  -0.000000   0.000000   0.000000  -0.000000   0.000023
    26  H   -0.000000  -0.000000   0.000000   0.000000  -0.000001   0.002231
    27  H   -0.000000  -0.000000  -0.000000   0.000000  -0.000000   0.000000
    28  H    0.000000  -0.000000   0.000000  -0.000000   0.000000  -0.000000
    29  H   -0.000000   0.000000   0.000000  -0.000000   0.000000  -0.000000
    30  H    0.000000   0.000000   0.000000   0.000000   0.000000  -0.000000
    31  H   -0.000000   0.000000  -0.000000   0.000000   0.000000  -0.000001
    32  H    0.234190  -0.011249   0.036962  -0.000000  -0.000000   0.000005
              25         26         27         28         29         30
     1  O    0.000000  -0.000000  -0.000000   0.000000  -0.000000  -0.000000
     2  C   -0.000000   0.000000   0.000000  -0.000000  -0.000000  -0.000000
     3  C    0.000001   0.000023   0.000000  -0.000000  -0.000000  -0.000000
     4  C    0.000052  -0.000209  -0.000000  -0.000000   0.000000  -0.000000
     5  C   -0.000417  -0.000520  -0.000000   0.000000  -0.000000  -0.000061
     6  C   -0.003040  -0.000421   0.000000   0.000001   0.000000   0.001969
     7  N   -0.041100   0.034333   0.000000  -0.000063   0.000000   0.003770
     8  C    0.348505  -0.011073  -0.000321   0.000504  -0.000000  -0.010871
     9  C   -0.035081  -0.013396  -0.001680  -0.000643   0.000003  -0.002430
    10  N   -0.001535   0.270369  -0.040884  -0.045340  -0.000207  -0.000058
    11  C   -0.000193  -0.040707   0.364118   0.361920   0.010308   0.000001
    12  C   -0.000006  -0.000947  -0.026177  -0.019278  -0.005658  -0.000000
    13  O   -0.000000   0.000510   0.003130   0.002143   0.218193   0.000000
    14  O   -0.000000   0.023709   0.000738   0.000816   0.009997   0.000000
    15  O    0.000945   0.002666   0.001589   0.008415   0.000000   0.000574
    16  C   -0.040417   0.000954  -0.000010   0.000021   0.000000   0.357630
    17  S    0.010569   0.000352   0.000000  -0.000002  -0.000000  -0.034162
    18  C    0.000004   0.000000  -0.000000   0.000000  -0.000000   0.000000
    19  O   -0.000001  -0.000000  -0.000000   0.000000  -0.000000   0.000000
    20  C   -0.000000  -0.000000  -0.000000  -0.000000   0.000000   0.000000
    21  Cl   0.000000   0.000000  -0.000000   0.000000   0.000000   0.000000
    22  H    0.000000   0.000000   0.000000  -0.000000  -0.000000   0.000000
    23  H   -0.000000  -0.000001  -0.000000   0.000000   0.000000   0.000000
    24  H    0.000023   0.002231   0.000000  -0.000000  -0.000000  -0.000000
    25  H    0.578444   0.000767   0.000038  -0.000021   0.000000  -0.005464
    26  H    0.000767   0.352615   0.002220   0.002994  -0.000056  -0.000021
    27  H    0.000038   0.002220   0.537246  -0.036649  -0.000410   0.000000
    28  H   -0.000021   0.002994  -0.036649   0.517216  -0.000300  -0.000000
    29  H    0.000000  -0.000056  -0.000410  -0.000300   0.351288  -0.000000
    30  H   -0.005464  -0.000021   0.000000  -0.000000  -0.000000   0.529362
    31  H    0.005474  -0.000007  -0.000000   0.000000   0.000000  -0.031985
    32  H    0.000000   0.000000  -0.000000   0.000000   0.000000   0.000000
              31         32
     1  O   -0.000000   0.000000
     2  C   -0.000000   0.001050
     3  C    0.000000  -0.000029
     4  C    0.000004  -0.000188
     5  C   -0.000174   0.006590
     6  C    0.000305  -0.000054
     7  N    0.002867   0.000004
     8  C   -0.037752   0.000000
     9  C   -0.002909  -0.000000
    10  N    0.000369  -0.000000
    11  C   -0.000036  -0.000000
    12  C   -0.000001  -0.000000
    13  O   -0.000000  -0.000000
    14  O    0.000000   0.000000
    15  O    0.004267  -0.000000
    16  C    0.360698  -0.000008
    17  S   -0.042814   0.000334
    18  C   -0.000001  -0.026362
    19  O   -0.000000   0.234190
    20  C    0.000000  -0.011249
    21  Cl  -0.000000   0.036962
    22  H    0.000000  -0.000000
    23  H    0.000000  -0.000000
    24  H   -0.000001   0.000005
    25  H    0.005474   0.000000
    26  H   -0.000007   0.000000
    27  H   -0.000000  -0.000000
    28  H    0.000000   0.000000
    29  H    0.000000   0.000000
    30  H   -0.031985   0.000000
    31  H    0.545767   0.000000
    32  H    0.000000   0.330701
 Mulliken charges:
               1
     1  O   -0.621485
     2  C    0.371155
     3  C   -0.193046
     4  C   -0.177242
     5  C    0.103202
     6  C    0.075165
     7  N   -0.460702
     8  C   -0.044125
     9  C    0.596299
    10  N   -0.615053
    11  C   -0.173512
    12  C    0.563396
    13  O   -0.560812
    14  O   -0.461469
    15  O   -0.529037
    16  C   -0.451720
    17  S    0.168354
    18  C    0.309280
    19  O   -0.631789
    20  C   -0.198050
    21  Cl   0.005845
    22  H    0.419514
    23  H    0.134170
    24  H    0.177709
    25  H    0.182451
    26  H    0.373615
    27  H    0.197052
    28  H    0.208264
    29  H    0.416844
    30  H    0.191747
    31  H    0.195928
    32  H    0.428054
 Sum of Mulliken charges =  -0.00000
 Mulliken charges with hydrogens summed into heavy atoms:
               1
     1  O   -0.201971
     2  C    0.371155
     3  C   -0.058876
     4  C    0.000467
     5  C    0.103202
     6  C    0.075165
     7  N   -0.460702
     8  C    0.138326
     9  C    0.596299
    10  N   -0.241438
    11  C    0.231803
    12  C    0.563396
    13  O   -0.143969
    14  O   -0.461469
    15  O   -0.529037
    16  C   -0.064045
    17  S    0.168354
    18  C    0.309280
    19  O   -0.203735
    20  C   -0.198050
    21  Cl   0.005845
 Electronic spatial extent (au):  <R**2>=           9899.2678
 Charge=             -0.0000 electrons
 Dipole moment (field-independent basis, Debye):
    X=              0.3057    Y=              4.5848    Z=             -0.1905  Tot=              4.5989
 Quadrupole moment (field-independent basis, Debye-Ang):
   XX=           -131.4433   YY=           -116.6009   ZZ=           -132.8747
   XY=            -11.9804   XZ=              0.3460   YZ=              1.8506
 Traceless Quadrupole moment (field-independent basis, Debye-Ang):
   XX=             -4.4703   YY=             10.3721   ZZ=             -5.9018
   XY=            -11.9804   XZ=              0.3460   YZ=              1.8506
 Octapole moment (field-independent basis, Debye-Ang**2):
  XXX=            -35.0299  YYY=            115.1529  ZZZ=              4.7750  XYY=             14.0029
  XXY=             91.0382  XXZ=             -2.5838  XZZ=            -18.2922  YZZ=              4.2407
  YYZ=              2.7508  XYZ=            -18.6818
 Hexadecapole moment (field-independent basis, Debye-Ang**3):
 XXXX=          -9358.8202 YYYY=          -2427.9642 ZZZZ=           -219.4597 XXXY=           -722.9634
 XXXZ=             36.4494 YYYX=            -85.4571 YYYZ=             30.5579 ZZZX=            -10.3206
 ZZZY=             11.1290 XXYY=          -1718.6287 XXZZ=          -1564.3755 YYZZ=           -517.6964
 XXYZ=             35.3152 YYXZ=            -41.7624 ZZXY=            -21.0887
 N-N= 1.889030870333D+03 E-N=-8.035219147700D+03  KE= 1.796660534424D+03
 1\1\GINC-C071\FOpt\RB3LYP\6-31G(d)\C12H11Cl1N2O5S1\XYCAO\28-Dec-2023\0
 \\# opt b3lyp/6-31g(d)\\molecule_17_1\\0,1\O,5.1107816517,1.8793030272
 ,1.6519092641\C,4.0748275877,1.2396003228,1.0547436059\C,2.7494237575,
 1.686550077,1.1348674848\C,1.7414593193,0.9792112165,0.4995847799\C,1.
 9940022228,-0.1938161573,-0.230873413\C,0.8526608208,-0.8870046804,-0.
 8645414453\N,-0.2926067208,-0.3192616968,-0.9627016772\C,-1.2942020403
 ,-1.1438565111,-1.6290101511\C,-2.6943884858,-0.9658032687,-1.02240249
 08\N,-2.8613055105,0.1829571676,-0.3221951545\C,-4.0968544324,0.481466
 6773,0.3559125195\C,-3.863079041,1.5776062198,1.3730096031\O,-4.999819
 5556,1.8857442119,2.0308488422\O,-2.8021257857,2.1260163363,1.57925179
 24\O,-3.5829237276,-1.7929685595,-1.1992534792\C,-0.8607847851,-2.6262
 903464,-1.619686125\S,0.971961755,-2.5734491306,-1.4927980588\C,3.3302
 46645,-0.6391781245,-0.3176526308\O,3.6033354796,-1.7497321736,-1.0367
 817907\C,4.3508215625,0.0794486095,0.3260236627\Cl,6.0033783747,-0.500
 3513367,0.1986557989\H,4.7717422965,2.6628249995,2.1128352745\H,2.5181
 331469,2.5858181042,1.7007821767\H,0.7161263606,1.3236281467,0.5644105
 816\H,-1.3677098766,-0.7921441177,-2.671155685\H,-2.0457704088,0.75134
 76702,-0.1204846956\H,-4.8826426919,0.8101341854,-0.3387668406\H,-4.49
 36216038,-0.409949495,0.8580289276\H,-4.7729186841,2.5962517157,2.6600
 161668\H,-1.1558155208,-3.148013349,-2.5305218709\H,-1.278511577,-3.16
 09892665,-0.7626309263\H,4.5560794669,-1.945100474,-0.9794240461\\Vers
 ion=ES64L-G16RevA.03\State=1-A\HF=-1807.9216328\RMSD=9.613e-09\RMSF=7.
 064e-06\Dipole=0.1881066,1.4754691,1.0302444\Quadrupole=-3.9768568,2.6
 15761,1.3610958,-6.9783109,-4.8876401,6.429436\PG=C01 [X(C12H11Cl1N2O5
 S1)]\\@


 IT CANNOT BE MY BEAUTY, FOR I HAVE NONE; AND IT CANNOT BE MY WIT,
 FOR HE HAS NOT ENOUGH TO KNOW THAT I HAVE ANY.
 -- CATHARINE SEDLEY, PUZZLED ABOUT WHY SHE WAS MISTRESS TO JAMES II
 Job cpu time:       0 days  2 hours 35 minutes 36.8 seconds.
 Elapsed time:       0 days  0 hours  4 minutes 58.5 seconds.
 File lengths (MBytes):  RWF=     80 Int=      0 D2E=      0 Chk=     10 Scr=      1
 Normal termination of Gaussian 16 at Thu Dec 28 11:06:16 2023.
