 Entering Gaussian System, Link 0=g16
 Input=molecule_8_1.com
 Output=molecule_8_1.log
 Initial command:
 /share/apps/g16/A03/l1.exe "/tmp/954060.tmpdir/scr/Gau-18301.inp" -scrdir="/tmp/954060.tmpdir/scr/"
 Entering Link 1 = /share/apps/g16/A03/l1.exe PID=     18302.
  
 Copyright (c) 1988,1990,1992,1993,1995,1998,2003,2009,2016,
            Gaussian, Inc.  All Rights Reserved.
  
 This is part of the Gaussian(R) 16 program.  It is based on
 the Gaussian(R) 09 system (copyright 2009, Gaussian, Inc.),
 the Gaussian(R) 03 system (copyright 2003, Gaussian, Inc.),
 the Gaussian(R) 98 system (copyright 1998, Gaussian, Inc.),
 the Gaussian(R) 94 system (copyright 1995, Gaussian, Inc.),
 the Gaussian 92(TM) system (copyright 1992, Gaussian, Inc.),
 the Gaussian 90(TM) system (copyright 1990, Gaussian, Inc.),
 the Gaussian 88(TM) system (copyright 1988, Gaussian, Inc.),
 the Gaussian 86(TM) system (copyright 1986, Carnegie Mellon
 University), and the Gaussian 82(TM) system (copyright 1983,
 Carnegie Mellon University). Gaussian is a federally registered
 trademark of Gaussian, Inc.
  
 This software contains proprietary and confidential information,
 including trade secrets, belonging to Gaussian, Inc.
  
 This software is provided under written license and may be
 used, copied, transmitted, or stored only in accord with that
 written license.
  
 The following legend is applicable only to US Government
 contracts under FAR:
  
                    RESTRICTED RIGHTS LEGEND
  
 Use, reproduction and disclosure by the US Government is
 subject to restrictions as set forth in subparagraphs (a)
 and (c) of the Commercial Computer Software - Restricted
 Rights clause in FAR 52.227-19.
  
 Gaussian, Inc.
 340 Quinnipiac St., Bldg. 40, Wallingford CT 06492
  
  
 ---------------------------------------------------------------
 Warning -- This program may not be used in any manner that
 competes with the business of Gaussian, Inc. or will provide
 assistance to any competitor of Gaussian, Inc.  The licensee
 of this program is prohibited from giving any competitor of
 Gaussian, Inc. access to this program.  By using this program,
 the user acknowledges that Gaussian, Inc. is engaged in the
 business of creating and licensing software in the field of
 computational chemistry and represents and warrants to the
 licensee that it is not a competitor of Gaussian, Inc. and that
 it will not use this program in any manner prohibited above.
 ---------------------------------------------------------------
  

 Cite this work as:
 Gaussian 16, Revision A.03,
 M. J. Frisch, G. W. Trucks, H. B. Schlegel, G. E. Scuseria, 
 M. A. Robb, J. R. Cheeseman, G. Scalmani, V. Barone, 
 G. A. Petersson, H. Nakatsuji, X. Li, M. Caricato, A. V. Marenich, 
 J. Bloino, B. G. Janesko, R. Gomperts, B. Mennucci, H. P. Hratchian, 
 J. V. Ortiz, A. F. Izmaylov, J. L. Sonnenberg, D. Williams-Young, 
 F. Ding, F. Lipparini, F. Egidi, J. Goings, B. Peng, A. Petrone, 
 T. Henderson, D. Ranasinghe, V. G. Zakrzewski, J. Gao, N. Rega, 
 G. Zheng, W. Liang, M. Hada, M. Ehara, K. Toyota, R. Fukuda, 
 J. Hasegawa, M. Ishida, T. Nakajima, Y. Honda, O. Kitao, H. Nakai, 
 T. Vreven, K. Throssell, J. A. Montgomery, Jr., J. E. Peralta, 
 F. Ogliaro, M. J. Bearpark, J. J. Heyd, E. N. Brothers, K. N. Kudin, 
 V. N. Staroverov, T. A. Keith, R. Kobayashi, J. Normand, 
 K. Raghavachari, A. P. Rendell, J. C. Burant, S. S. Iyengar, 
 J. Tomasi, M. Cossi, J. M. Millam, M. Klene, C. Adamo, R. Cammi, 
 J. W. Ochterski, R. L. Martin, K. Morokuma, O. Farkas, 
 J. B. Foresman, and D. J. Fox, Gaussian, Inc., Wallingford CT, 2016.
 
 ******************************************
 Gaussian 16:  ES64L-G16RevA.03 25-Dec-2016
                28-Dec-2023 
 ******************************************
 %nprocs=32
 Will use up to   32 processors via shared memory.
 %chk=molecule_8_1.chk
 %mem=10GB
 --------------------
 # opt b3lyp/6-31g(d)
 --------------------
 1/18=20,19=15,26=3,38=1/1,3;
 2/9=110,12=2,17=6,18=5,40=1/2;
 3/5=1,6=6,7=1,11=2,25=1,30=1,71=1,74=-5/1,2,3;
 4//1;
 5/5=2,38=5/2;
 6/7=2,8=2,9=2,10=2,28=1/1;
 7//1,2,3,16;
 1/18=20,19=15,26=3/3(2);
 2/9=110/2;
 99//99;
 2/9=110/2;
 3/5=1,6=6,7=1,11=2,25=1,30=1,71=1,74=-5/1,2,3;
 4/5=5,16=3,69=1/1;
 5/5=2,38=5/2;
 7//1,2,3,16;
 1/18=20,19=15,26=3/3(-5);
 2/9=110/2;
 6/7=2,8=2,9=2,10=2,19=2,28=1/1;
 99/9=1/99;
 ------------
 molecule_8_1
 ------------
 Symbolic Z-matrix:
 Charge =  0 Multiplicity = 1
 O                    -0.70925   1.51312   2.68128 
 C                    -0.9219    2.4771    1.6992 
 C                    -0.1053    2.4686    0.4293 
 C                    -0.9498    2.3114   -0.8477 
 C                    -1.8472    1.1167   -0.7812 
 C                    -3.1589    1.0478   -1.2339 
 N                    -3.7109   -0.1353   -0.8886 
 C                    -2.7574   -0.8102   -0.2216 
 C                    -2.8822   -2.0569    0.3864 
 O                    -4.0754   -2.7716    0.3095 
 C                    -1.772    -2.5588    1.0873 
 C                    -0.5717   -1.8205    1.151 
 C                    -0.4477   -0.5637    0.5072 
 C                     0.8626    0.1598    0.4865 
 C                     2.1561   -0.6269    0.4915 
 C                     3.02786  -0.34821  -0.75441 
 C                     3.4114    1.13653  -0.84895 
 C                     2.28728  -0.78136  -2.02551 
 N                     0.958     1.4626    0.471 
 C                    -1.5919   -0.0842   -0.151 
 O                    -1.76944   3.38925   1.89576 
 H                    -1.24496   1.51969   3.54085 
 H                     0.3921    3.4601    0.3677 
 H                    -0.2814    2.2126   -1.73 
 H                    -1.5652    3.2262   -0.993 
 H                    -3.6918    1.835    -1.7513 
 H                    -4.6912   -0.4431   -1.0748 
 H                    -4.177    -3.6773    0.7523 
 H                    -1.8348   -3.5177    1.5856 
 H                     0.2521   -2.2352    1.7167 
 H                     2.71876  -0.35256   1.41011 
 H                     1.9593   -1.71926   0.531 
 H                     3.96181  -0.9497   -0.69224 
 H                     2.50247   1.77374  -0.89996 
 H                     4.01264   1.44066   0.03377 
 H                     4.02667   1.31654  -1.75617 
 H                     2.92642  -0.61335  -2.91853 
 H                     1.34406  -0.20603  -2.14603 
 H                     2.0432   -1.86409  -1.97679 
 

 GradGradGradGradGradGradGradGradGradGradGradGradGradGradGradGradGradGrad
 Berny optimization.
 Initialization pass.
                           ----------------------------
                           !    Initial Parameters    !
                           ! (Angstroms and Degrees)  !
 --------------------------                            --------------------------
 ! Name  Definition              Value          Derivative Info.                !
 --------------------------------------------------------------------------------
 ! R1    R(1,2)                  1.3925         estimate D2E/DX2                !
 ! R2    R(1,22)                 1.0129         estimate D2E/DX2                !
 ! R3    R(2,3)                  1.5098         estimate D2E/DX2                !
 ! R4    R(2,21)                 1.2605         estimate D2E/DX2                !
 ! R5    R(3,4)                  1.539          estimate D2E/DX2                !
 ! R6    R(3,19)                 1.4644         estimate D2E/DX2                !
 ! R7    R(3,23)                 1.111          estimate D2E/DX2                !
 ! R8    R(4,5)                  1.4957         estimate D2E/DX2                !
 ! R9    R(4,24)                 1.1113         estimate D2E/DX2                !
 ! R10   R(4,25)                 1.1121         estimate D2E/DX2                !
 ! R11   R(5,6)                  1.3893         estimate D2E/DX2                !
 ! R12   R(5,20)                 1.38           estimate D2E/DX2                !
 ! R13   R(6,7)                  1.3504         estimate D2E/DX2                !
 ! R14   R(6,26)                 1.0823         estimate D2E/DX2                !
 ! R15   R(7,8)                  1.3452         estimate D2E/DX2                !
 ! R16   R(7,27)                 1.0442         estimate D2E/DX2                !
 ! R17   R(8,9)                  1.3927         estimate D2E/DX2                !
 ! R18   R(8,20)                 1.3749         estimate D2E/DX2                !
 ! R19   R(9,10)                 1.393          estimate D2E/DX2                !
 ! R20   R(9,11)                 1.4056         estimate D2E/DX2                !
 ! R21   R(10,28)                1.0133         estimate D2E/DX2                !
 ! R22   R(11,12)                1.4106         estimate D2E/DX2                !
 ! R23   R(11,29)                1.0825         estimate D2E/DX2                !
 ! R24   R(12,13)                1.4175         estimate D2E/DX2                !
 ! R25   R(12,30)                1.082          estimate D2E/DX2                !
 ! R26   R(13,14)                1.4969         estimate D2E/DX2                !
 ! R27   R(13,20)                1.4044         estimate D2E/DX2                !
 ! R28   R(14,15)                1.514          estimate D2E/DX2                !
 ! R29   R(14,19)                1.3064         estimate D2E/DX2                !
 ! R30   R(15,16)                1.5459         estimate D2E/DX2                !
 ! R31   R(15,31)                1.1116         estimate D2E/DX2                !
 ! R32   R(15,32)                1.1106         estimate D2E/DX2                !
 ! R33   R(16,17)                1.5364         estimate D2E/DX2                !
 ! R34   R(16,18)                1.5335         estimate D2E/DX2                !
 ! R35   R(16,33)                1.1126         estimate D2E/DX2                !
 ! R36   R(17,34)                1.1112         estimate D2E/DX2                !
 ! R37   R(17,35)                1.1105         estimate D2E/DX2                !
 ! R38   R(17,36)                1.1109         estimate D2E/DX2                !
 ! R39   R(18,37)                1.111          estimate D2E/DX2                !
 ! R40   R(18,38)                1.1114         estimate D2E/DX2                !
 ! R41   R(18,39)                1.111          estimate D2E/DX2                !
 ! A1    A(2,1,22)             120.8824         estimate D2E/DX2                !
 ! A2    A(1,2,3)              120.4452         estimate D2E/DX2                !
 ! A3    A(1,2,21)             119.5807         estimate D2E/DX2                !
 ! A4    A(3,2,21)             119.9259         estimate D2E/DX2                !
 ! A5    A(2,3,4)              113.6836         estimate D2E/DX2                !
 ! A6    A(2,3,19)             111.8786         estimate D2E/DX2                !
 ! A7    A(2,3,23)             106.4848         estimate D2E/DX2                !
 ! A8    A(4,3,19)             110.6031         estimate D2E/DX2                !
 ! A9    A(4,3,23)             106.9071         estimate D2E/DX2                !
 ! A10   A(19,3,23)            106.8335         estimate D2E/DX2                !
 ! A11   A(3,4,5)              111.958          estimate D2E/DX2                !
 ! A12   A(3,4,24)             109.7436         estimate D2E/DX2                !
 ! A13   A(3,4,25)             109.15           estimate D2E/DX2                !
 ! A14   A(5,4,24)             108.9752         estimate D2E/DX2                !
 ! A15   A(5,4,25)             109.3209         estimate D2E/DX2                !
 ! A16   A(24,4,25)            107.5922         estimate D2E/DX2                !
 ! A17   A(4,5,6)              126.2702         estimate D2E/DX2                !
 ! A18   A(4,5,20)             127.1851         estimate D2E/DX2                !
 ! A19   A(6,5,20)             106.2781         estimate D2E/DX2                !
 ! A20   A(5,6,7)              110.2459         estimate D2E/DX2                !
 ! A21   A(5,6,26)             125.7723         estimate D2E/DX2                !
 ! A22   A(7,6,26)             123.9308         estimate D2E/DX2                !
 ! A23   A(6,7,8)              106.057          estimate D2E/DX2                !
 ! A24   A(6,7,27)             126.6113         estimate D2E/DX2                !
 ! A25   A(8,7,27)             127.2979         estimate D2E/DX2                !
 ! A26   A(7,8,9)              127.0192         estimate D2E/DX2                !
 ! A27   A(7,8,20)             111.1858         estimate D2E/DX2                !
 ! A28   A(9,8,20)             121.751          estimate D2E/DX2                !
 ! A29   A(8,9,10)             120.794          estimate D2E/DX2                !
 ! A30   A(8,9,11)             117.8116         estimate D2E/DX2                !
 ! A31   A(10,9,11)            121.3914         estimate D2E/DX2                !
 ! A32   A(9,10,28)            121.3571         estimate D2E/DX2                !
 ! A33   A(9,11,12)            120.5112         estimate D2E/DX2                !
 ! A34   A(9,11,29)            120.0023         estimate D2E/DX2                !
 ! A35   A(12,11,29)           119.4864         estimate D2E/DX2                !
 ! A36   A(11,12,13)           121.1957         estimate D2E/DX2                !
 ! A37   A(11,12,30)           118.0911         estimate D2E/DX2                !
 ! A38   A(13,12,30)           120.7093         estimate D2E/DX2                !
 ! A39   A(12,13,14)           120.7553         estimate D2E/DX2                !
 ! A40   A(12,13,20)           116.3785         estimate D2E/DX2                !
 ! A41   A(14,13,20)           122.7962         estimate D2E/DX2                !
 ! A42   A(13,14,15)           119.78           estimate D2E/DX2                !
 ! A43   A(13,14,19)           123.099          estimate D2E/DX2                !
 ! A44   A(15,14,19)           117.1199         estimate D2E/DX2                !
 ! A45   A(14,15,16)           112.6719         estimate D2E/DX2                !
 ! A46   A(14,15,31)           107.8752         estimate D2E/DX2                !
 ! A47   A(14,15,32)           111.088          estimate D2E/DX2                !
 ! A48   A(16,15,31)           109.638          estimate D2E/DX2                !
 ! A49   A(16,15,32)           107.8115         estimate D2E/DX2                !
 ! A50   A(31,15,32)           107.6396         estimate D2E/DX2                !
 ! A51   A(15,16,17)           111.3814         estimate D2E/DX2                !
 ! A52   A(15,16,18)           110.1673         estimate D2E/DX2                !
 ! A53   A(15,16,33)           109.321          estimate D2E/DX2                !
 ! A54   A(17,16,18)           110.0296         estimate D2E/DX2                !
 ! A55   A(17,16,33)           108.4407         estimate D2E/DX2                !
 ! A56   A(18,16,33)           107.397          estimate D2E/DX2                !
 ! A57   A(16,17,34)           110.6581         estimate D2E/DX2                !
 ! A58   A(16,17,35)           110.543          estimate D2E/DX2                !
 ! A59   A(16,17,36)           110.189          estimate D2E/DX2                !
 ! A60   A(34,17,35)           108.8023         estimate D2E/DX2                !
 ! A61   A(34,17,36)           108.8221         estimate D2E/DX2                !
 ! A62   A(35,17,36)           107.7535         estimate D2E/DX2                !
 ! A63   A(16,18,37)           110.226          estimate D2E/DX2                !
 ! A64   A(16,18,38)           110.7023         estimate D2E/DX2                !
 ! A65   A(16,18,39)           110.1829         estimate D2E/DX2                !
 ! A66   A(37,18,38)           108.8323         estimate D2E/DX2                !
 ! A67   A(37,18,39)           108.001          estimate D2E/DX2                !
 ! A68   A(38,18,39)           108.8328         estimate D2E/DX2                !
 ! A69   A(3,19,14)            129.2285         estimate D2E/DX2                !
 ! A70   A(5,20,8)             106.2137         estimate D2E/DX2                !
 ! A71   A(5,20,13)            131.4411         estimate D2E/DX2                !
 ! A72   A(8,20,13)            122.3036         estimate D2E/DX2                !
 ! D1    D(22,1,2,3)           179.2048         estimate D2E/DX2                !
 ! D2    D(22,1,2,21)            1.732          estimate D2E/DX2                !
 ! D3    D(1,2,3,4)            119.9997         estimate D2E/DX2                !
 ! D4    D(1,2,3,19)            -6.1726         estimate D2E/DX2                !
 ! D5    D(1,2,3,23)          -122.5498         estimate D2E/DX2                !
 ! D6    D(21,2,3,4)           -62.5362         estimate D2E/DX2                !
 ! D7    D(21,2,3,19)          171.2915         estimate D2E/DX2                !
 ! D8    D(21,2,3,23)           54.9142         estimate D2E/DX2                !
 ! D9    D(2,3,4,5)            -53.2981         estimate D2E/DX2                !
 ! D10   D(2,3,4,24)          -174.4422         estimate D2E/DX2                !
 ! D11   D(2,3,4,25)            67.8759         estimate D2E/DX2                !
 ! D12   D(19,3,4,5)            73.5441         estimate D2E/DX2                !
 ! D13   D(19,3,4,24)          -47.5999         estimate D2E/DX2                !
 ! D14   D(19,3,4,25)         -165.2819         estimate D2E/DX2                !
 ! D15   D(23,3,4,5)          -170.5035         estimate D2E/DX2                !
 ! D16   D(23,3,4,24)           68.3525         estimate D2E/DX2                !
 ! D17   D(23,3,4,25)          -49.3294         estimate D2E/DX2                !
 ! D18   D(2,3,19,14)           67.1165         estimate D2E/DX2                !
 ! D19   D(4,3,19,14)          -60.7194         estimate D2E/DX2                !
 ! D20   D(23,3,19,14)        -176.7176         estimate D2E/DX2                !
 ! D21   D(3,4,5,6)            139.9365         estimate D2E/DX2                !
 ! D22   D(3,4,5,20)           -33.3059         estimate D2E/DX2                !
 ! D23   D(24,4,5,6)           -98.4766         estimate D2E/DX2                !
 ! D24   D(24,4,5,20)           88.2811         estimate D2E/DX2                !
 ! D25   D(25,4,5,6)            18.8612         estimate D2E/DX2                !
 ! D26   D(25,4,5,20)         -154.3812         estimate D2E/DX2                !
 ! D27   D(4,5,6,7)           -173.5894         estimate D2E/DX2                !
 ! D28   D(4,5,6,26)             3.8857         estimate D2E/DX2                !
 ! D29   D(20,5,6,7)             0.8061         estimate D2E/DX2                !
 ! D30   D(20,5,6,26)          178.2812         estimate D2E/DX2                !
 ! D31   D(4,5,20,8)           173.0182         estimate D2E/DX2                !
 ! D32   D(4,5,20,13)           -4.6158         estimate D2E/DX2                !
 ! D33   D(6,5,20,8)            -1.3099         estimate D2E/DX2                !
 ! D34   D(6,5,20,13)         -178.9439         estimate D2E/DX2                !
 ! D35   D(5,6,7,8)              0.0511         estimate D2E/DX2                !
 ! D36   D(5,6,7,27)           178.052          estimate D2E/DX2                !
 ! D37   D(26,6,7,8)          -177.48           estimate D2E/DX2                !
 ! D38   D(26,6,7,27)            0.5209         estimate D2E/DX2                !
 ! D39   D(6,7,8,9)            176.6834         estimate D2E/DX2                !
 ! D40   D(6,7,8,20)            -0.9176         estimate D2E/DX2                !
 ! D41   D(27,7,8,9)            -1.2993         estimate D2E/DX2                !
 ! D42   D(27,7,8,20)         -178.9004         estimate D2E/DX2                !
 ! D43   D(7,8,9,10)             2.2134         estimate D2E/DX2                !
 ! D44   D(7,8,9,11)          -177.1691         estimate D2E/DX2                !
 ! D45   D(20,8,9,10)          179.5827         estimate D2E/DX2                !
 ! D46   D(20,8,9,11)            0.2002         estimate D2E/DX2                !
 ! D47   D(7,8,20,5)             1.418          estimate D2E/DX2                !
 ! D48   D(7,8,20,13)          179.3198         estimate D2E/DX2                !
 ! D49   D(9,8,20,5)          -176.3295         estimate D2E/DX2                !
 ! D50   D(9,8,20,13)            1.5722         estimate D2E/DX2                !
 ! D51   D(8,9,10,28)         -179.7083         estimate D2E/DX2                !
 ! D52   D(11,9,10,28)          -0.3481         estimate D2E/DX2                !
 ! D53   D(8,9,11,12)           -0.748          estimate D2E/DX2                !
 ! D54   D(8,9,11,29)          179.1006         estimate D2E/DX2                !
 ! D55   D(10,9,11,12)         179.8734         estimate D2E/DX2                !
 ! D56   D(10,9,11,29)          -0.278          estimate D2E/DX2                !
 ! D57   D(9,11,12,13)          -0.421          estimate D2E/DX2                !
 ! D58   D(9,11,12,30)         178.8653         estimate D2E/DX2                !
 ! D59   D(29,11,12,13)        179.7297         estimate D2E/DX2                !
 ! D60   D(29,11,12,30)         -0.984          estimate D2E/DX2                !
 ! D61   D(11,12,13,14)       -174.9878         estimate D2E/DX2                !
 ! D62   D(11,12,13,20)          2.0537         estimate D2E/DX2                !
 ! D63   D(30,12,13,14)          5.7445         estimate D2E/DX2                !
 ! D64   D(30,12,13,20)       -177.214          estimate D2E/DX2                !
 ! D65   D(12,13,14,15)         30.6821         estimate D2E/DX2                !
 ! D66   D(12,13,14,19)       -148.9414         estimate D2E/DX2                !
 ! D67   D(20,13,14,15)       -146.1646         estimate D2E/DX2                !
 ! D68   D(20,13,14,19)         34.2118         estimate D2E/DX2                !
 ! D69   D(12,13,20,5)         174.6728         estimate D2E/DX2                !
 ! D70   D(12,13,20,8)          -2.6391         estimate D2E/DX2                !
 ! D71   D(14,13,20,5)          -8.3517         estimate D2E/DX2                !
 ! D72   D(14,13,20,8)         174.3363         estimate D2E/DX2                !
 ! D73   D(13,14,15,16)        119.9999         estimate D2E/DX2                !
 ! D74   D(13,14,15,31)       -118.8408         estimate D2E/DX2                !
 ! D75   D(13,14,15,32)         -1.0903         estimate D2E/DX2                !
 ! D76   D(19,14,15,16)        -60.3545         estimate D2E/DX2                !
 ! D77   D(19,14,15,31)         60.8048         estimate D2E/DX2                !
 ! D78   D(19,14,15,32)        178.5554         estimate D2E/DX2                !
 ! D79   D(13,14,19,3)          -2.0542         estimate D2E/DX2                !
 ! D80   D(15,14,19,3)         178.3129         estimate D2E/DX2                !
 ! D81   D(14,15,16,17)         60.0002         estimate D2E/DX2                !
 ! D82   D(14,15,16,18)        -62.3873         estimate D2E/DX2                !
 ! D83   D(14,15,16,33)        179.8183         estimate D2E/DX2                !
 ! D84   D(31,15,16,17)        -60.149          estimate D2E/DX2                !
 ! D85   D(31,15,16,18)        177.4634         estimate D2E/DX2                !
 ! D86   D(31,15,16,33)         59.6691         estimate D2E/DX2                !
 ! D87   D(32,15,16,17)       -177.0588         estimate D2E/DX2                !
 ! D88   D(32,15,16,18)         60.5537         estimate D2E/DX2                !
 ! D89   D(32,15,16,33)        -57.2407         estimate D2E/DX2                !
 ! D90   D(15,16,17,34)        -58.9427         estimate D2E/DX2                !
 ! D91   D(15,16,17,35)         61.6632         estimate D2E/DX2                !
 ! D92   D(15,16,17,36)       -179.3412         estimate D2E/DX2                !
 ! D93   D(18,16,17,34)         63.5241         estimate D2E/DX2                !
 ! D94   D(18,16,17,35)       -175.8699         estimate D2E/DX2                !
 ! D95   D(18,16,17,36)        -56.8743         estimate D2E/DX2                !
 ! D96   D(33,16,17,34)       -179.2807         estimate D2E/DX2                !
 ! D97   D(33,16,17,35)        -58.6747         estimate D2E/DX2                !
 ! D98   D(33,16,17,36)         60.3209         estimate D2E/DX2                !
 ! D99   D(15,16,18,37)       -178.0919         estimate D2E/DX2                !
 ! D100  D(15,16,18,38)         61.4439         estimate D2E/DX2                !
 ! D101  D(15,16,18,39)        -58.9926         estimate D2E/DX2                !
 ! D102  D(17,16,18,37)         58.7272         estimate D2E/DX2                !
 ! D103  D(17,16,18,38)        -61.737          estimate D2E/DX2                !
 ! D104  D(17,16,18,39)        177.8265         estimate D2E/DX2                !
 ! D105  D(33,16,18,37)        -59.1158         estimate D2E/DX2                !
 ! D106  D(33,16,18,38)       -179.58           estimate D2E/DX2                !
 ! D107  D(33,16,18,39)         59.9835         estimate D2E/DX2                !
 --------------------------------------------------------------------------------
 Trust Radius=3.00D-01 FncErr=1.00D-07 GrdErr=1.00D-06 EigMax=2.50D+02 EigMin=1.00D-04
 Number of steps in this run=    230 maximum allowed number of steps=    234.
 GradGradGradGradGradGradGradGradGradGradGradGradGradGradGradGradGradGrad

                          Input orientation:                          
 ---------------------------------------------------------------------
 Center     Atomic      Atomic             Coordinates (Angstroms)
 Number     Number       Type             X           Y           Z
 ---------------------------------------------------------------------
      1          8           0       -0.709250    1.513120    2.681280
      2          6           0       -0.921900    2.477100    1.699200
      3          6           0       -0.105300    2.468600    0.429300
      4          6           0       -0.949800    2.311400   -0.847700
      5          6           0       -1.847200    1.116700   -0.781200
      6          6           0       -3.158900    1.047800   -1.233900
      7          7           0       -3.710900   -0.135300   -0.888600
      8          6           0       -2.757400   -0.810200   -0.221600
      9          6           0       -2.882200   -2.056900    0.386400
     10          8           0       -4.075400   -2.771600    0.309500
     11          6           0       -1.772000   -2.558800    1.087300
     12          6           0       -0.571700   -1.820500    1.151000
     13          6           0       -0.447700   -0.563700    0.507200
     14          6           0        0.862600    0.159800    0.486500
     15          6           0        2.156100   -0.626900    0.491500
     16          6           0        3.027860   -0.348210   -0.754410
     17          6           0        3.411400    1.136530   -0.848950
     18          6           0        2.287280   -0.781360   -2.025510
     19          7           0        0.958000    1.462600    0.471000
     20          6           0       -1.591900   -0.084200   -0.151000
     21          8           0       -1.769440    3.389250    1.895760
     22          1           0       -1.244960    1.519690    3.540850
     23          1           0        0.392100    3.460100    0.367700
     24          1           0       -0.281400    2.212600   -1.730000
     25          1           0       -1.565200    3.226200   -0.993000
     26          1           0       -3.691800    1.835000   -1.751300
     27          1           0       -4.691200   -0.443100   -1.074800
     28          1           0       -4.177000   -3.677300    0.752300
     29          1           0       -1.834800   -3.517700    1.585600
     30          1           0        0.252100   -2.235200    1.716700
     31          1           0        2.718760   -0.352560    1.410110
     32          1           0        1.959300   -1.719260    0.531000
     33          1           0        3.961810   -0.949700   -0.692240
     34          1           0        2.502470    1.773740   -0.899960
     35          1           0        4.012640    1.440660    0.033770
     36          1           0        4.026670    1.316540   -1.756170
     37          1           0        2.926420   -0.613350   -2.918530
     38          1           0        1.344060   -0.206030   -2.146030
     39          1           0        2.043200   -1.864090   -1.976790
 ---------------------------------------------------------------------
                    Distance matrix (angstroms):
                    1          2          3          4          5
     1  O    0.000000
     2  C    1.392465   0.000000
     3  C    2.519744   1.509819   0.000000
     4  C    3.626129   2.552437   1.539033   0.000000
     5  C    3.666176   2.976450   2.515385   1.495679   0.000000
     6  C    4.641761   3.956026   3.756245   2.574094   1.389331
     7  N    4.946841   4.615178   4.638697   3.689402   2.247758
     8  C    4.244932   4.226686   4.267064   3.661121   2.203307
     9  C    4.767938   5.111103   5.309724   4.933479   3.536418
    10  O    5.942654   6.278908   6.575389   6.078271   4.612307
    11  C    4.500082   5.143674   5.337191   5.304629   4.123863
    12  C    3.670654   4.346554   4.374330   4.605471   3.739979
    13  C    3.017982   3.300332   3.052564   3.217772   2.538172
    14  C    3.019809   3.166222   2.504129   3.113562   3.140977
    15  C    4.193454   4.535134   3.834047   4.480366   4.548221
    16  C    5.406894   5.440881   4.376332   4.785813   5.090470
    17  C    5.439127   5.202661   3.971840   4.516679   5.259074
    18  C    6.033051   5.898293   4.723640   4.629372   4.716446
    19  N    2.769045   2.464084   1.464371   2.469642   3.091407
    20  C    3.369319   3.229922   3.010567   2.576157   1.380033
    21  O    2.293667   1.260547   2.401554   3.059435   3.512356
    22  H    1.012862   2.100637   3.446882   4.469149   4.382375
    23  H    3.218129   2.113239   1.110979   2.144156   3.438889
    24  H    4.486838   3.498516   2.181542   1.111294   2.133764
    25  H    4.143384   2.867565   2.174443   1.112065   2.138779
    26  H    5.352287   4.471084   4.244932   2.926092   2.204450
    27  H    5.812991   5.516364   5.636559   4.651550   3.256918
    28  H    6.533507   7.026303   7.379374   6.988515   5.546353
    29  H    5.270344   6.064975   6.337506   6.378290   5.203802
    30  H    3.988046   4.856372   4.889874   5.356518   4.677798
    31  H    4.104618   4.620060   4.110504   5.064852   5.273382
    32  H    4.710960   5.222590   4.670234   5.158478   4.924833
    33  H    6.266173   6.427485   5.429918   5.897699   6.166240
    34  H    4.817504   4.356221   3.008360   3.494278   4.400618
    35  H    5.413945   5.310137   4.262691   5.114781   5.925103
    36  H    6.492961   6.146123   4.814218   5.155610   5.957588
    37  H    7.006985   6.758985   5.467880   5.278975   5.508965
    38  H    5.520370   5.207644   3.985802   3.644847   3.714366
    39  H    6.378020   6.414877   5.401622   5.260001   5.044775
                    6          7          8          9         10
     6  C    0.000000
     7  N    1.350430   0.000000
     8  C    2.153629   1.345192   0.000000
     9  C    3.512990   2.450493   1.392659   0.000000
    10  O    4.220174   2.918627   2.422041   1.392995   0.000000
    11  C    4.507663   3.679248   2.396212   1.405599   2.440473
    12  C    4.539658   4.105416   2.771646   2.445181   3.726745
    13  C    3.602633   3.574949   2.434466   2.858501   4.251366
    14  C    4.463270   4.784860   3.814014   4.352850   5.745283
    15  C    5.833597   6.047151   4.968359   5.238360   6.592758
    16  C    6.360405   6.743458   5.828083   6.256986   7.580305
    17  C    6.582165   7.235073   6.499032   7.164739   8.524533
    18  C    5.799427   6.139065   5.357585   5.845326   7.063783
    19  N    4.475222   5.118635   4.410160   5.209719   6.579487
    20  C    2.215758   2.244287   1.374937   2.417689   3.688082
    21  O    4.148224   4.893300   4.805690   5.759944   6.766812
    22  H    5.165664   5.332905   4.676739   5.042133   6.071918
    23  H    4.581912   5.598196   5.338735   6.415503   7.667857
    24  H    3.143705   4.240526   4.188456   5.428806   6.587583
    25  H    2.709860   3.989312   4.278893   5.616794   6.631079
    26  H    1.082298   2.150976   3.195335   4.513546   5.061108
    27  H    2.143837   1.044222   2.145296   2.830537   2.778022
    28  H    5.225714   3.931357   3.344250   2.106202   1.013256
    29  H    5.526899   4.591519   3.383448   2.160802   2.684285
    30  H    5.578445   5.186766   3.852885   3.409593   4.582051
    31  H    6.595353   6.831676   5.732385   5.943358   7.295458
    32  H    6.080088   6.056019   4.862104   4.855413   6.129770
    33  H    7.415384   7.718308   6.737117   7.016397   8.301780
    34  H    5.717483   6.500041   5.899420   6.732250   8.086488
    35  H    7.293306   7.936466   7.138979   7.739257   9.123352
    36  H    7.209536   7.920259   7.273344   7.981428   9.307170
    37  H    6.529052   6.957238   6.294282   6.837139   8.006479
    38  H    4.762428   5.209487   4.570605   5.263097   6.479377
    39  H    6.007731   6.105943   5.218921   5.466389   6.594540
                   11         12         13         14         15
    11  C    0.000000
    12  C    1.410626   0.000000
    13  C    2.463881   1.417533   0.000000
    14  C    3.833127   2.533844   1.496919   0.000000
    15  C    4.417826   3.049674   2.604614   1.513956   0.000000
    16  C    5.596183   4.330711   3.703730   2.546818   1.545938
    17  C    6.653733   5.348730   4.429738   3.038718   2.546030
    18  C    5.415407   4.398158   3.733914   3.037382   2.525155
    19  N    4.899427   3.685258   2.466413   1.306380   2.408708
    20  C    2.772989   2.398072   1.404401   2.547648   3.841202
    21  O    6.002742   5.397290   4.393280   4.398067   5.788892
    22  H    4.788712   4.161914   3.765524   3.952235   5.047137
    23  H    6.436483   5.424685   4.112869   3.335785   4.453155
    24  H    5.738059   4.964910   3.569392   3.230417   4.351922
    25  H    6.151149   5.572518   4.226434   4.181620   5.558614
    26  H    5.572141   5.614361   4.623718   5.343838   6.729713
    27  H    4.203878   4.880748   4.530404   5.800503   7.026564
    28  H    2.673442   4.074906   4.864387   6.339681   7.034281
    29  H    1.082468   2.159812   3.437020   4.691268   5.047877
    30  H    2.144258   1.081961   2.178652   2.760820   2.777222
    31  H    5.013843   3.612356   3.299439   2.135626   1.111617
    32  H    3.864828   2.607798   2.670119   2.176143   1.110649
    33  H    6.215508   4.970768   4.586004   3.496501   2.183124
    34  H    6.402437   5.155145   4.018361   2.686307   2.796284
    35  H    7.111095   5.735812   4.912864   3.430498   2.816214
    36  H    7.531810   6.279941   5.355197   4.047092   3.511127
    37  H    6.473531   5.500466   4.808615   4.056026   3.495981
    38  H    5.069495   4.140900   3.221484   2.701083   2.791613
    39  H    4.942370   4.077091   3.750440   3.399668   2.763303
                   16         17         18         19         20
    16  C    0.000000
    17  C    1.536390   0.000000
    18  C    1.533549   2.515202   0.000000
    19  N    3.010811   2.804953   3.610388   0.000000
    20  C    4.666475   5.197146   4.364385   3.046550   0.000000
    21  O    6.633709   6.280866   7.016219   3.630544   4.035542
    22  H    6.339976   6.410838   6.982544   3.778925   4.040122
    23  H    4.765458   3.999423   5.225815   2.078682   4.094798
    24  H    4.296595   3.946004   3.955912   2.634960   3.079926
    25  H    5.824906   5.399446   5.654044   3.408830   3.415908
    26  H    7.135407   7.194272   6.532222   5.167005   3.264026
    27  H    7.726289   8.258230   7.051060   6.159111   3.253902
    28  H    8.078553   9.128021   7.608522   7.270896   4.517639
    29  H    6.258337   7.423712   6.125293   5.817685   3.855347
    30  H    4.167968   5.285102   4.501083   3.965323   3.393441
    31  H    2.186483   2.792936   3.489058   2.697593   4.592480
    32  H    2.161915   3.488322   2.742803   3.336231   3.968572
    33  H    1.112618   2.163300   2.147091   4.024325   5.646745
    34  H    2.190865   1.111212   2.800305   2.088475   4.558152
    35  H    2.188852   1.110486   3.486384   3.085851   5.811214
    36  H    2.184614   1.110860   2.738468   3.794516   6.008908
    37  H    2.182660   2.753261   1.110951   4.435444   5.324889
    38  H    2.189065   2.785458   1.111393   3.127653   3.551739
    39  H    2.182123   3.485357   1.110969   4.270387   4.440211
                   21         22         23         24         25
    21  O    0.000000
    22  H    2.544927   0.000000
    23  H    2.648064   4.063747   0.000000
    24  H    4.092054   5.402817   2.531838   0.000000
    25  H    2.900557   4.854949   2.395253   1.794073   0.000000
    26  H    4.405929   5.838947   4.879483   3.431306   2.651959
    27  H    5.661079   6.085502   6.569301   5.189255   4.821030
    28  H    7.552481   6.586469   8.483341   7.485214   7.584582
    29  H    6.914219   5.435643   7.425096   6.800191   7.225099
    30  H    5.979392   4.434852   5.854557   5.652193   6.361756
    31  H    5.863526   4.874059   4.586539   5.043937   6.077399
    32  H    6.470158   5.460520   5.413737   5.058891   6.261170
    33  H    7.640122   7.150342   5.771710   5.392765   6.933717
    34  H    5.354917   5.816233   2.984030   2.937941   4.320212
    35  H    6.379378   6.320460   4.159081   4.705906   5.945983
    36  H    7.157347   7.475946   4.723957   4.400349   5.958040
    37  H    7.826193   7.979590   5.815074   4.437196   6.214858
    38  H    6.241473   6.482418   4.545941   2.943632   4.644725
    39  H    7.558469   7.259911   6.047294   4.699369   6.316601
                   26         27         28         29         30
    26  H    0.000000
    27  H    2.578021   0.000000
    28  H    6.073622   3.750033   0.000000
    29  H    6.575314   4.968895   2.491137   0.000000
    30  H    6.644389   5.953176   4.756747   2.452987   0.000000
    31  H    7.474972   7.816040   7.683626   5.548317   3.118131
    32  H    7.055253   6.959621   6.444926   4.329176   2.141637
    33  H    8.213033   8.676265   8.704408   6.736755   4.606240
    34  H    6.252800   7.529531   8.778332   7.279372   5.289865
    35  H    7.918357   8.974091   9.684008   7.822152   5.521400
    36  H    7.735865   8.919745   9.926281   8.300249   6.238835
    37  H    7.152460   7.839417   8.562789   7.168797   5.591757
    38  H    5.448073   6.134175   7.136675   5.915858   4.497843
    39  H    6.828202   6.941537   7.030402   5.519414   4.121605
                   31         32         33         34         35
    31  H    0.000000
    32  H    1.793734   0.000000
    33  H    2.514284   2.469531   0.000000
    34  H    3.147119   3.813624   3.096764   0.000000
    35  H    2.604626   3.801123   2.498699   1.806490   0.000000
    36  H    3.810755   4.326806   2.504396   1.807018   1.794293
    37  H    4.341458   3.749349   2.478211   3.154767   3.756981
    38  H    3.815416   3.136060   3.085314   2.610382   3.818957
    39  H    3.769907   2.513369   2.483393   3.821557   4.340785
                   36         37         38         39
    36  H    0.000000
    37  H    2.507211   0.000000
    38  H    3.109117   1.807354   0.000000
    39  H    3.754895   1.797582   1.807374   0.000000
 Stoichiometry    C16H18N2O3
 Framework group  C1[X(C16H18N2O3)]
 Deg. of freedom   111
 Full point group                 C1      NOp   1
 Largest Abelian subgroup         C1      NOp   1
 Largest concise Abelian subgroup C1      NOp   1
                         Standard orientation:                         
 ---------------------------------------------------------------------
 Center     Atomic      Atomic             Coordinates (Angstroms)
 Number     Number       Type             X           Y           Z
 ---------------------------------------------------------------------
      1          8           0       -0.063070    1.818531   -2.155843
      2          6           0       -0.242812    2.544458   -0.981245
      3          6           0       -1.137062    2.016896    0.114907
      4          6           0       -0.410229    1.797063    1.453566
      5          6           0        0.804998    0.939494    1.295910
      6          6           0        2.027886    1.122431    1.929410
      7          7           0        2.938304    0.248193    1.449297
      8          6           0        2.298120   -0.482010    0.518431
      9          6           0        2.846967   -1.468992   -0.296512
     10          8           0        4.186062   -1.832399   -0.173237
     11          6           0        2.009569   -2.071973   -1.250916
     12          6           0        0.655424   -1.691559   -1.357885
     13          6           0        0.100900   -0.703368   -0.506190
     14          6           0       -1.361346   -0.386345   -0.552019
     15          6           0       -2.354270   -1.468684   -0.919043
     16          6           0       -3.384355   -1.737351    0.201969
     17          6           0       -4.200905   -0.476943    0.526175
     18          6           0       -2.673247   -2.241468    1.463700
     19          7           0       -1.842405    0.800580   -0.294296
     20          6           0        0.981353   -0.102063    0.407907
     21          8           0        0.308438    3.671084   -0.855483
     22          1           0        0.525814    2.171794   -2.900362
     23          1           0       -1.911314    2.793844    0.291424
     24          1           0       -1.099748    1.316530    2.180632
     25          1           0       -0.112876    2.782956    1.873429
     26          1           0        2.249437    1.879240    2.670709
     27          1           0        3.943295    0.181468    1.724870
     28          1           0        4.595277   -2.546209   -0.764596
     29          1           0        2.403128   -2.832842   -1.912675
     30          1           0        0.051032   -2.167709   -2.118563
     31          1           0       -2.882694   -1.147897   -1.842924
     32          1           0       -1.837461   -2.426120   -1.142127
     33          1           0       -4.085691   -2.536281   -0.126296
     34          1           0       -3.532927    0.351214    0.846727
     35          1           0       -4.778289   -0.147211   -0.363254
     36          1           0       -4.925601   -0.688710    1.341025
     37          1           0       -3.415670   -2.467533    2.258631
     38          1           0       -1.960874   -1.478212    1.844696
     39          1           0       -2.113536   -3.174982    1.241151
 ---------------------------------------------------------------------
 Rotational constants (GHZ):           0.4165687           0.2804108           0.2212179
 Standard basis: 6-31G(d) (6D, 7F)
 There are   351 symmetry adapted cartesian basis functions of A   symmetry.
 There are   351 symmetry adapted basis functions of A   symmetry.
   351 basis functions,   660 primitive gaussians,   351 cartesian basis functions
    76 alpha electrons       76 beta electrons
       nuclear repulsion energy      1745.8362643281 Hartrees.
 NAtoms=   39 NActive=   39 NUniq=   39 SFac= 1.00D+00 NAtFMM=   60 NAOKFM=F Big=F
 Integral buffers will be    131072 words long.
 Raffenetti 2 integral format.
 Two-electron integral symmetry is turned on.
 One-electron integrals computed using PRISM.
 NBasis=   351 RedAO= T EigKep=  2.56D-04  NBF=   351
 NBsUse=   351 1.00D-06 EigRej= -1.00D+00 NBFU=   351
 ExpMin= 1.61D-01 ExpMax= 5.48D+03 ExpMxC= 8.25D+02 IAcc=3 IRadAn=         5 AccDes= 0.00D+00
 Harris functional with IExCor=  402 and IRadAn=       5 diagonalized for initial guess.
 HarFok:  IExCor=  402 AccDes= 0.00D+00 IRadAn=         5 IDoV= 1 UseB2=F ITyADJ=14
 ICtDFT=  3500011 ScaDFX=  1.000000  1.000000  1.000000  1.000000
 FoFCou: FMM=F IPFlag=           0 FMFlag=      100000 FMFlg1=           0
         NFxFlg=           0 DoJE=T BraDBF=F KetDBF=T FulRan=T
         wScrn=  0.000000 ICntrl=       500 IOpCl=  0 I1Cent=   200000004 NGrid=           0
         NMat0=    1 NMatS0=      1 NMatT0=    0 NMatD0=    1 NMtDS0=    0 NMtDT0=    0
 Petite list used in FoFCou.
 Requested convergence on RMS density matrix=1.00D-08 within 128 cycles.
 Requested convergence on MAX density matrix=1.00D-06.
 Requested convergence on             energy=1.00D-06.
 No special actions if energy rises.
 Integral accuracy reduced to 1.0D-05 until final iterations.
 Initial convergence to 1.0D-05 achieved.  Increase integral accuracy.
 SCF Done:  E(RB3LYP) =  -955.669142793     A.U. after   15 cycles
            NFock= 15  Conv=0.95D-08     -V/T= 2.0097

 **********************************************************************

            Population analysis using the SCF density.

 **********************************************************************

 Orbital symmetries:
       Occupied  (A) (A) (A) (A) (A) (A) (A) (A) (A) (A) (A) (A)
                 (A) (A) (A) (A) (A) (A) (A) (A) (A) (A) (A) (A)
                 (A) (A) (A) (A) (A) (A) (A) (A) (A) (A) (A) (A)
                 (A) (A) (A) (A) (A) (A) (A) (A) (A) (A) (A) (A)
                 (A) (A) (A) (A) (A) (A) (A) (A) (A) (A) (A) (A)
                 (A) (A) (A) (A) (A) (A) (A) (A) (A) (A) (A) (A)
                 (A) (A) (A) (A)
       Virtual   (A) (A) (A) (A) (A) (A) (A) (A) (A) (A) (A) (A)
                 (A) (A) (A) (A) (A) (A) (A) (A) (A) (A) (A) (A)
                 (A) (A) (A) (A) (A) (A) (A) (A) (A) (A) (A) (A)
                 (A) (A) (A) (A) (A) (A) (A) (A) (A) (A) (A) (A)
                 (A) (A) (A) (A) (A) (A) (A) (A) (A) (A) (A) (A)
                 (A) (A) (A) (A) (A) (A) (A) (A) (A) (A) (A) (A)
                 (A) (A) (A) (A) (A) (A) (A) (A) (A) (A) (A) (A)
                 (A) (A) (A) (A) (A) (A) (A) (A) (A) (A) (A) (A)
                 (A) (A) (A) (A) (A) (A) (A) (A) (A) (A) (A) (A)
                 (A) (A) (A) (A) (A) (A) (A) (A) (A) (A) (A) (A)
                 (A) (A) (A) (A) (A) (A) (A) (A) (A) (A) (A) (A)
                 (A) (A) (A) (A) (A) (A) (A) (A) (A) (A) (A) (A)
                 (A) (A) (A) (A) (A) (A) (A) (A) (A) (A) (A) (A)
                 (A) (A) (A) (A) (A) (A) (A) (A) (A) (A) (A) (A)
                 (A) (A) (A) (A) (A) (A) (A) (A) (A) (A) (A) (A)
                 (A) (A) (A) (A) (A) (A) (A) (A) (A) (A) (A) (A)
                 (A) (A) (A) (A) (A) (A) (A) (A) (A) (A) (A) (A)
                 (A) (A) (A) (A) (A) (A) (A) (A) (A) (A) (A) (A)
                 (A) (A) (A) (A) (A) (A) (A) (A) (A) (A) (A) (A)
                 (A) (A) (A) (A) (A) (A) (A) (A) (A) (A) (A) (A)
                 (A) (A) (A) (A) (A) (A) (A) (A) (A) (A) (A) (A)
                 (A) (A) (A) (A) (A) (A) (A) (A) (A) (A) (A) (A)
                 (A) (A) (A) (A) (A) (A) (A) (A) (A) (A) (A)
 The electronic state is 1-A.
 Alpha  occ. eigenvalues --  -19.18600 -19.18390 -19.12278 -14.38886 -14.30089
 Alpha  occ. eigenvalues --  -10.31905 -10.25739 -10.23318 -10.22829 -10.21691
 Alpha  occ. eigenvalues --  -10.21563 -10.19687 -10.18744 -10.18588 -10.18517
 Alpha  occ. eigenvalues --  -10.18064 -10.17856 -10.17763 -10.17460 -10.16534
 Alpha  occ. eigenvalues --  -10.14835  -1.06210  -1.04476  -0.99939  -0.97660
 Alpha  occ. eigenvalues --   -0.90591  -0.84171  -0.81244  -0.79112  -0.76465
 Alpha  occ. eigenvalues --   -0.74324  -0.71111  -0.69413  -0.66846  -0.65881
 Alpha  occ. eigenvalues --   -0.63690  -0.60938  -0.60652  -0.57694  -0.57158
 Alpha  occ. eigenvalues --   -0.54425  -0.53057  -0.51402  -0.48465  -0.47748
 Alpha  occ. eigenvalues --   -0.47680  -0.46024  -0.44920  -0.44627  -0.44045
 Alpha  occ. eigenvalues --   -0.42757  -0.42403  -0.41760  -0.40888  -0.40345
 Alpha  occ. eigenvalues --   -0.39533  -0.38806  -0.37992  -0.37945  -0.36794
 Alpha  occ. eigenvalues --   -0.36105  -0.35790  -0.35300  -0.34680  -0.34258
 Alpha  occ. eigenvalues --   -0.33181  -0.31866  -0.31304  -0.30749  -0.29353
 Alpha  occ. eigenvalues --   -0.27909  -0.25937  -0.24772  -0.22298  -0.21100
 Alpha  occ. eigenvalues --   -0.18727
 Alpha virt. eigenvalues --   -0.03287  -0.00267   0.02006   0.03723   0.04187
 Alpha virt. eigenvalues --    0.05595   0.07244   0.07679   0.09494   0.10952
 Alpha virt. eigenvalues --    0.11093   0.13131   0.14183   0.14611   0.15887
 Alpha virt. eigenvalues --    0.16027   0.17064   0.17584   0.18281   0.18576
 Alpha virt. eigenvalues --    0.19183   0.20169   0.20936   0.21521   0.21728
 Alpha virt. eigenvalues --    0.22690   0.23711   0.23956   0.25011   0.25784
 Alpha virt. eigenvalues --    0.26521   0.27060   0.28003   0.28674   0.30414
 Alpha virt. eigenvalues --    0.31637   0.33195   0.33950   0.36977   0.37228
 Alpha virt. eigenvalues --    0.38258   0.38994   0.41939   0.43821   0.47235
 Alpha virt. eigenvalues --    0.48134   0.49870   0.51572   0.52219   0.52768
 Alpha virt. eigenvalues --    0.53213   0.53903   0.54186   0.54680   0.54859
 Alpha virt. eigenvalues --    0.55279   0.57512   0.58079   0.58645   0.59384
 Alpha virt. eigenvalues --    0.60362   0.60515   0.61106   0.62575   0.62858
 Alpha virt. eigenvalues --    0.63908   0.64207   0.65170   0.65832   0.66407
 Alpha virt. eigenvalues --    0.67405   0.68405   0.69652   0.70163   0.72157
 Alpha virt. eigenvalues --    0.72572   0.73319   0.73652   0.74631   0.75758
 Alpha virt. eigenvalues --    0.76559   0.78078   0.78589   0.80180   0.80744
 Alpha virt. eigenvalues --    0.80853   0.81577   0.81707   0.83666   0.84166
 Alpha virt. eigenvalues --    0.84831   0.85601   0.86076   0.87072   0.87466
 Alpha virt. eigenvalues --    0.88115   0.88983   0.89886   0.90672   0.91084
 Alpha virt. eigenvalues --    0.91926   0.92112   0.93644   0.93928   0.95305
 Alpha virt. eigenvalues --    0.95471   0.96760   0.97914   0.98793   0.99774
 Alpha virt. eigenvalues --    1.00081   1.01459   1.03164   1.04040   1.04800
 Alpha virt. eigenvalues --    1.05468   1.06946   1.08279   1.08822   1.09466
 Alpha virt. eigenvalues --    1.10546   1.11113   1.12694   1.16192   1.19173
 Alpha virt. eigenvalues --    1.19985   1.21164   1.21591   1.24587   1.25168
 Alpha virt. eigenvalues --    1.25667   1.29336   1.30673   1.31992   1.33161
 Alpha virt. eigenvalues --    1.33842   1.36118   1.36623   1.38368   1.40247
 Alpha virt. eigenvalues --    1.40735   1.42153   1.44891   1.45989   1.47513
 Alpha virt. eigenvalues --    1.47768   1.49172   1.51098   1.51646   1.54465
 Alpha virt. eigenvalues --    1.56025   1.58947   1.60202   1.62015   1.63439
 Alpha virt. eigenvalues --    1.65083   1.67817   1.70677   1.71387   1.72295
 Alpha virt. eigenvalues --    1.72635   1.73621   1.75126   1.75974   1.77228
 Alpha virt. eigenvalues --    1.78990   1.79682   1.80396   1.81739   1.82047
 Alpha virt. eigenvalues --    1.83203   1.84285   1.85448   1.86269   1.86799
 Alpha virt. eigenvalues --    1.89581   1.89939   1.90498   1.92021   1.93617
 Alpha virt. eigenvalues --    1.95064   1.96104   1.97359   1.98359   2.00341
 Alpha virt. eigenvalues --    2.00867   2.02570   2.04088   2.05235   2.05895
 Alpha virt. eigenvalues --    2.06599   2.07982   2.09904   2.10050   2.11933
 Alpha virt. eigenvalues --    2.13381   2.14177   2.15119   2.17621   2.20298
 Alpha virt. eigenvalues --    2.20527   2.22711   2.23876   2.24794   2.25545
 Alpha virt. eigenvalues --    2.26894   2.27426   2.28673   2.30073   2.30952
 Alpha virt. eigenvalues --    2.32527   2.33563   2.34733   2.35126   2.36216
 Alpha virt. eigenvalues --    2.38000   2.42452   2.43490   2.45637   2.46695
 Alpha virt. eigenvalues --    2.47447   2.49251   2.49884   2.52383   2.53541
 Alpha virt. eigenvalues --    2.55668   2.56977   2.58540   2.60579   2.63060
 Alpha virt. eigenvalues --    2.63921   2.67135   2.67965   2.70494   2.71845
 Alpha virt. eigenvalues --    2.72720   2.73068   2.75653   2.77264   2.79568
 Alpha virt. eigenvalues --    2.81144   2.87127   2.87661   2.89243   2.94479
 Alpha virt. eigenvalues --    2.99597   3.00215   3.00932   3.03575   3.06684
 Alpha virt. eigenvalues --    3.14905   3.23383   3.36864   3.49487   3.83835
 Alpha virt. eigenvalues --    3.93894   4.06229   4.08276   4.09768   4.13601
 Alpha virt. eigenvalues --    4.17080   4.19254   4.22423   4.27655   4.31757
 Alpha virt. eigenvalues --    4.32981   4.36763   4.37951   4.43211   4.47317
 Alpha virt. eigenvalues --    4.54288   4.62634   4.65123   4.69066   4.93424
          Condensed to atoms (all electrons):
               1          2          3          4          5          6
     1  O    8.257459   0.274165  -0.072092   0.000613  -0.000884   0.000023
     2  C    0.274165   4.452065   0.260100  -0.015673  -0.004381   0.001054
     3  C   -0.072092   0.260100   5.182564   0.287763  -0.021757   0.002255
     4  C    0.000613  -0.015673   0.287763   5.263280   0.341248  -0.087756
     5  C   -0.000884  -0.004381  -0.021757   0.341248   5.027987   0.466097
     6  C    0.000023   0.001054   0.002255  -0.087756   0.466097   5.077137
     7  N    0.000000  -0.000141  -0.000020   0.006148  -0.052120   0.316191
     8  C   -0.000304  -0.000193  -0.000504   0.015610   0.014071  -0.175538
     9  C    0.000048   0.000030   0.000001  -0.000368   0.020575   0.005780
    10  O   -0.000000   0.000000  -0.000000   0.000000  -0.000157   0.000180
    11  C   -0.000049  -0.000025  -0.000004   0.000038  -0.000447  -0.000136
    12  C    0.000089   0.000090  -0.000084  -0.000342   0.014021  -0.000383
    13  C    0.000570   0.002223  -0.007386  -0.021188  -0.136371   0.022077
    14  C    0.002141  -0.007445  -0.048339   0.001460  -0.021290  -0.000329
    15  C   -0.000296  -0.000325   0.006737  -0.000463   0.000224   0.000004
    16  C   -0.000000  -0.000009   0.000126  -0.000036   0.000012   0.000000
    17  C   -0.000000  -0.000026   0.000144  -0.000206   0.000040   0.000000
    18  C    0.000000  -0.000000  -0.000131  -0.000074  -0.000102  -0.000000
    19  N    0.000881  -0.032250   0.233128  -0.046040  -0.003302   0.000161
    20  C    0.000448  -0.001267  -0.003608  -0.063624   0.398879   0.047324
    21  O   -0.081606   0.500834  -0.065797  -0.000396  -0.001273  -0.000141
    22  H    0.214858  -0.003905   0.006516  -0.000151   0.000036   0.000003
    23  H    0.001372  -0.047455   0.386292  -0.040735   0.005366  -0.000118
    24  H   -0.000041   0.005337  -0.040187   0.363876  -0.034046   0.000139
    25  H    0.000094  -0.004412  -0.023462   0.340088  -0.030043  -0.007403
    26  H    0.000000  -0.000013   0.000038  -0.003507  -0.028680   0.361159
    27  H   -0.000000   0.000000   0.000002  -0.000075   0.003149  -0.028822
    28  H    0.000000   0.000000   0.000000  -0.000000   0.000007   0.000002
    29  H   -0.000000  -0.000000   0.000000   0.000000   0.000010   0.000002
    30  H    0.000012  -0.000003   0.000002  -0.000003  -0.000216   0.000006
    31  H    0.000096   0.000035  -0.000162   0.000015  -0.000016  -0.000000
    32  H   -0.000000   0.000002  -0.000153   0.000006   0.000017   0.000000
    33  H    0.000000   0.000000   0.000010  -0.000001   0.000000   0.000000
    34  H    0.000001   0.000193   0.000151  -0.000191  -0.000054  -0.000000
    35  H    0.000000   0.000000  -0.000013   0.000005  -0.000001  -0.000000
    36  H    0.000000   0.000001  -0.000023   0.000006  -0.000001   0.000000
    37  H    0.000000  -0.000000   0.000002  -0.000001  -0.000000  -0.000000
    38  H    0.000000   0.000008  -0.000106   0.000167   0.000273  -0.000005
    39  H   -0.000000  -0.000000   0.000000   0.000001  -0.000002   0.000000
               7          8          9         10         11         12
     1  O    0.000000  -0.000304   0.000048  -0.000000  -0.000049   0.000089
     2  C   -0.000141  -0.000193   0.000030   0.000000  -0.000025   0.000090
     3  C   -0.000020  -0.000504   0.000001  -0.000000  -0.000004  -0.000084
     4  C    0.006148   0.015610  -0.000368   0.000000   0.000038  -0.000342
     5  C   -0.052120   0.014071   0.020575  -0.000157  -0.000447   0.014021
     6  C    0.316191  -0.175538   0.005780   0.000180  -0.000136  -0.000383
     7  N    7.043824   0.255169  -0.108032  -0.001121   0.008006  -0.000762
     8  C    0.255169   5.002793   0.390810  -0.044199  -0.030993  -0.062521
     9  C   -0.108032   0.390810   4.771938   0.254700   0.477709   0.011152
    10  O   -0.001121  -0.044199   0.254700   8.310689  -0.065851   0.004196
    11  C    0.008006  -0.030993   0.477709  -0.065851   5.145241   0.427915
    12  C   -0.000762  -0.062521   0.011152   0.004196   0.427915   5.117280
    13  C    0.013635  -0.061687  -0.062365   0.000318  -0.010775   0.450468
    14  C   -0.000067   0.009795  -0.000281   0.000001   0.005294  -0.061975
    15  C    0.000001  -0.000187   0.000000   0.000000   0.000273  -0.010022
    16  C   -0.000000   0.000003   0.000001  -0.000000  -0.000005   0.000071
    17  C    0.000000  -0.000000   0.000000   0.000000   0.000000  -0.000007
    18  C    0.000000  -0.000012  -0.000001   0.000000  -0.000001   0.000025
    19  N    0.000004  -0.000172  -0.000005  -0.000000  -0.000148   0.005532
    20  C   -0.065913   0.399980  -0.031948   0.002943  -0.048896  -0.000310
    21  O    0.000000   0.000019   0.000000   0.000000  -0.000000   0.000000
    22  H   -0.000000  -0.000031  -0.000003   0.000000  -0.000001   0.000139
    23  H    0.000000   0.000002  -0.000000   0.000000  -0.000000   0.000005
    24  H   -0.000057  -0.000273   0.000007  -0.000000  -0.000002   0.000009
    25  H    0.000042   0.000104   0.000005  -0.000000  -0.000000   0.000008
    26  H   -0.049793   0.005359  -0.000182  -0.000000   0.000004   0.000003
    27  H    0.322857  -0.029381  -0.007349   0.005473   0.000106  -0.000038
    28  H   -0.000302   0.004182  -0.024034   0.238607  -0.004014   0.000423
    29  H   -0.000117   0.004281  -0.040720  -0.005154   0.346020  -0.032005
    30  H    0.000006   0.001002   0.003047  -0.000053  -0.037316   0.349137
    31  H   -0.000000   0.000004  -0.000000  -0.000000   0.000010   0.000179
    32  H    0.000000  -0.000036  -0.000002   0.000000   0.000002   0.003307
    33  H    0.000000  -0.000000  -0.000000  -0.000000  -0.000000  -0.000001
    34  H   -0.000000   0.000000   0.000000  -0.000000   0.000000  -0.000010
    35  H   -0.000000   0.000000  -0.000000  -0.000000   0.000000   0.000000
    36  H   -0.000000   0.000000   0.000000  -0.000000   0.000000  -0.000000
    37  H    0.000000   0.000000  -0.000000   0.000000  -0.000000   0.000002
    38  H   -0.000003   0.000001   0.000000  -0.000000  -0.000007  -0.000030
    39  H    0.000000  -0.000003   0.000000   0.000000  -0.000003   0.000116
              13         14         15         16         17         18
     1  O    0.000570   0.002141  -0.000296  -0.000000  -0.000000   0.000000
     2  C    0.002223  -0.007445  -0.000325  -0.000009  -0.000026  -0.000000
     3  C   -0.007386  -0.048339   0.006737   0.000126   0.000144  -0.000131
     4  C   -0.021188   0.001460  -0.000463  -0.000036  -0.000206  -0.000074
     5  C   -0.136371  -0.021290   0.000224   0.000012   0.000040  -0.000102
     6  C    0.022077  -0.000329   0.000004   0.000000   0.000000  -0.000000
     7  N    0.013635  -0.000067   0.000001  -0.000000   0.000000   0.000000
     8  C   -0.061687   0.009795  -0.000187   0.000003  -0.000000  -0.000012
     9  C   -0.062365  -0.000281   0.000000   0.000001   0.000000  -0.000001
    10  O    0.000318   0.000001   0.000000  -0.000000   0.000000   0.000000
    11  C   -0.010775   0.005294   0.000273  -0.000005   0.000000  -0.000001
    12  C    0.450468  -0.061975  -0.010022   0.000071  -0.000007   0.000025
    13  C    5.118979   0.328428  -0.074909  -0.000949   0.000298   0.001763
    14  C    0.328428   4.820501   0.352987  -0.021607  -0.014384  -0.006089
    15  C   -0.074909   0.352987   5.197223   0.372855  -0.047716  -0.057148
    16  C   -0.000949  -0.021607   0.372855   4.834914   0.391278   0.376527
    17  C    0.000298  -0.014384  -0.047716   0.391278   5.138732  -0.057413
    18  C    0.001763  -0.006089  -0.057148   0.376527  -0.057413   5.135764
    19  N   -0.044985   0.493241  -0.084859  -0.008373  -0.028731  -0.002664
    20  C    0.418397  -0.033125   0.003402  -0.000113  -0.000000  -0.000100
    21  O   -0.000114   0.000128   0.000001   0.000000   0.000000   0.000000
    22  H    0.000343  -0.000139  -0.000002  -0.000000  -0.000000  -0.000000
    23  H   -0.000353   0.003419  -0.000029   0.000021   0.000518   0.000000
    24  H    0.002227  -0.000812  -0.000186  -0.000075  -0.000153   0.000098
    25  H   -0.000193   0.000058   0.000004   0.000001   0.000004  -0.000000
    26  H   -0.000203   0.000001  -0.000000  -0.000000   0.000000  -0.000000
    27  H    0.000044   0.000002  -0.000000   0.000000  -0.000000  -0.000000
    28  H   -0.000049  -0.000000   0.000000  -0.000000  -0.000000  -0.000000
    29  H    0.002958  -0.000135   0.000005   0.000000  -0.000000  -0.000000
    30  H   -0.032512  -0.007190   0.003242   0.000033   0.000001  -0.000008
    31  H    0.003018  -0.025363   0.349646  -0.029381  -0.004913   0.005862
    32  H   -0.000861  -0.034944   0.353069  -0.034271   0.005395  -0.005257
    33  H   -0.000221   0.004604  -0.042393   0.377919  -0.044151  -0.048283
    34  H    0.000343   0.003197  -0.010234  -0.030158   0.369558  -0.004437
    35  H   -0.000023  -0.000607  -0.003274  -0.031346   0.367690   0.005444
    36  H    0.000018   0.000383   0.005412  -0.033681   0.346069  -0.004890
    37  H    0.000016   0.000042   0.005497  -0.029736  -0.004382   0.367095
    38  H   -0.000668   0.008821  -0.009898  -0.034195  -0.005070   0.370892
    39  H    0.000223  -0.000568  -0.003775  -0.032398   0.005447   0.364433
              19         20         21         22         23         24
     1  O    0.000881   0.000448  -0.081606   0.214858   0.001372  -0.000041
     2  C   -0.032250  -0.001267   0.500834  -0.003905  -0.047455   0.005337
     3  C    0.233128  -0.003608  -0.065797   0.006516   0.386292  -0.040187
     4  C   -0.046040  -0.063624  -0.000396  -0.000151  -0.040735   0.363876
     5  C   -0.003302   0.398879  -0.001273   0.000036   0.005366  -0.034046
     6  C    0.000161   0.047324  -0.000141   0.000003  -0.000118   0.000139
     7  N    0.000004  -0.065913   0.000000  -0.000000   0.000000  -0.000057
     8  C   -0.000172   0.399980   0.000019  -0.000031   0.000002  -0.000273
     9  C   -0.000005  -0.031948   0.000000  -0.000003  -0.000000   0.000007
    10  O   -0.000000   0.002943   0.000000   0.000000   0.000000  -0.000000
    11  C   -0.000148  -0.048896  -0.000000  -0.000001  -0.000000  -0.000002
    12  C    0.005532  -0.000310   0.000000   0.000139   0.000005   0.000009
    13  C   -0.044985   0.418397  -0.000114   0.000343  -0.000353   0.002227
    14  C    0.493241  -0.033125   0.000128  -0.000139   0.003419  -0.000812
    15  C   -0.084859   0.003402   0.000001  -0.000002  -0.000029  -0.000186
    16  C   -0.008373  -0.000113   0.000000  -0.000000   0.000021  -0.000075
    17  C   -0.028731  -0.000000   0.000000  -0.000000   0.000518  -0.000153
    18  C   -0.002664  -0.000100   0.000000  -0.000000   0.000000   0.000098
    19  N    7.014716  -0.015986   0.002805  -0.000355  -0.055015  -0.005191
    20  C   -0.015986   4.933944  -0.000611   0.000087   0.000403  -0.004083
    21  O    0.002805  -0.000611   8.125013   0.005738  -0.000219   0.000035
    22  H   -0.000355   0.000087   0.005738   0.358335  -0.000163   0.000003
    23  H   -0.055015   0.000403  -0.000219  -0.000163   0.567377  -0.003220
    24  H   -0.005191  -0.004083   0.000035   0.000003  -0.003220   0.580725
    25  H    0.004930   0.003721   0.005703  -0.000009  -0.000787  -0.033266
    26  H    0.000001   0.004345  -0.000007   0.000000   0.000004   0.000068
    27  H   -0.000000   0.006589  -0.000000   0.000000  -0.000000   0.000003
    28  H    0.000000   0.000012   0.000000   0.000000  -0.000000   0.000000
    29  H    0.000001   0.001147   0.000000  -0.000000   0.000000  -0.000000
    30  H    0.000055   0.003004  -0.000000  -0.000002   0.000000   0.000000
    31  H   -0.002660  -0.000069  -0.000000  -0.000001  -0.000011   0.000005
    32  H    0.004391   0.000286  -0.000000   0.000000   0.000001   0.000004
    33  H   -0.000050   0.000001  -0.000000   0.000000   0.000000   0.000001
    34  H    0.014010   0.000020  -0.000001   0.000000  -0.000150   0.001676
    35  H    0.001498   0.000000  -0.000000   0.000000  -0.000000  -0.000002
    36  H    0.001391  -0.000000  -0.000000   0.000000  -0.000030   0.000018
    37  H    0.000026   0.000000  -0.000000  -0.000000  -0.000000  -0.000001
    38  H    0.001121   0.000832  -0.000000   0.000000  -0.000005   0.001313
    39  H    0.000099  -0.000036  -0.000000   0.000000  -0.000000  -0.000003
              25         26         27         28         29         30
     1  O    0.000094   0.000000  -0.000000   0.000000  -0.000000   0.000012
     2  C   -0.004412  -0.000013   0.000000   0.000000  -0.000000  -0.000003
     3  C   -0.023462   0.000038   0.000002   0.000000   0.000000   0.000002
     4  C    0.340088  -0.003507  -0.000075  -0.000000   0.000000  -0.000003
     5  C   -0.030043  -0.028680   0.003149   0.000007   0.000010  -0.000216
     6  C   -0.007403   0.361159  -0.028822   0.000002   0.000002   0.000006
     7  N    0.000042  -0.049793   0.322857  -0.000302  -0.000117   0.000006
     8  C    0.000104   0.005359  -0.029381   0.004182   0.004281   0.001002
     9  C    0.000005  -0.000182  -0.007349  -0.024034  -0.040720   0.003047
    10  O   -0.000000  -0.000000   0.005473   0.238607  -0.005154  -0.000053
    11  C   -0.000000   0.000004   0.000106  -0.004014   0.346020  -0.037316
    12  C    0.000008   0.000003  -0.000038   0.000423  -0.032005   0.349137
    13  C   -0.000193  -0.000203   0.000044  -0.000049   0.002958  -0.032512
    14  C    0.000058   0.000001   0.000002  -0.000000  -0.000135  -0.007190
    15  C    0.000004  -0.000000  -0.000000   0.000000   0.000005   0.003242
    16  C    0.000001  -0.000000   0.000000  -0.000000   0.000000   0.000033
    17  C    0.000004   0.000000  -0.000000  -0.000000  -0.000000   0.000001
    18  C   -0.000000  -0.000000  -0.000000  -0.000000  -0.000000  -0.000008
    19  N    0.004930   0.000001  -0.000000   0.000000   0.000001   0.000055
    20  C    0.003721   0.004345   0.006589   0.000012   0.001147   0.003004
    21  O    0.005703  -0.000007  -0.000000   0.000000   0.000000  -0.000000
    22  H   -0.000009   0.000000   0.000000   0.000000  -0.000000  -0.000002
    23  H   -0.000787   0.000004  -0.000000  -0.000000   0.000000   0.000000
    24  H   -0.033266   0.000068   0.000003   0.000000  -0.000000   0.000000
    25  H    0.584058   0.003804  -0.000009   0.000000   0.000000  -0.000000
    26  H    0.003804   0.560662  -0.002089  -0.000000  -0.000000  -0.000000
    27  H   -0.000009  -0.002089   0.380154  -0.000235  -0.000000   0.000000
    28  H    0.000000  -0.000000  -0.000235   0.363578   0.004800  -0.000008
    29  H    0.000000  -0.000000  -0.000000   0.004800   0.612618  -0.005195
    30  H   -0.000000  -0.000000   0.000000  -0.000008  -0.005195   0.586467
    31  H    0.000000   0.000000   0.000000  -0.000000  -0.000000  -0.000069
    32  H   -0.000000  -0.000000  -0.000000  -0.000000  -0.000001   0.004319
    33  H    0.000000  -0.000000  -0.000000   0.000000   0.000000   0.000008
    34  H   -0.000008  -0.000000   0.000000  -0.000000  -0.000000  -0.000000
    35  H   -0.000000   0.000000   0.000000   0.000000   0.000000  -0.000000
    36  H   -0.000000  -0.000000   0.000000  -0.000000  -0.000000  -0.000000
    37  H   -0.000000   0.000000   0.000000  -0.000000  -0.000000  -0.000000
    38  H    0.000009   0.000000  -0.000000   0.000000   0.000000   0.000006
    39  H   -0.000000   0.000000  -0.000000   0.000000  -0.000000  -0.000015
              31         32         33         34         35         36
     1  O    0.000096  -0.000000   0.000000   0.000001   0.000000   0.000000
     2  C    0.000035   0.000002   0.000000   0.000193   0.000000   0.000001
     3  C   -0.000162  -0.000153   0.000010   0.000151  -0.000013  -0.000023
     4  C    0.000015   0.000006  -0.000001  -0.000191   0.000005   0.000006
     5  C   -0.000016   0.000017   0.000000  -0.000054  -0.000001  -0.000001
     6  C   -0.000000   0.000000   0.000000  -0.000000  -0.000000   0.000000
     7  N   -0.000000   0.000000   0.000000  -0.000000  -0.000000  -0.000000
     8  C    0.000004  -0.000036  -0.000000   0.000000   0.000000   0.000000
     9  C   -0.000000  -0.000002  -0.000000   0.000000  -0.000000   0.000000
    10  O   -0.000000   0.000000  -0.000000  -0.000000  -0.000000  -0.000000
    11  C    0.000010   0.000002  -0.000000   0.000000   0.000000   0.000000
    12  C    0.000179   0.003307  -0.000001  -0.000010   0.000000  -0.000000
    13  C    0.003018  -0.000861  -0.000221   0.000343  -0.000023   0.000018
    14  C   -0.025363  -0.034944   0.004604   0.003197  -0.000607   0.000383
    15  C    0.349646   0.353069  -0.042393  -0.010234  -0.003274   0.005412
    16  C   -0.029381  -0.034271   0.377919  -0.030158  -0.031346  -0.033681
    17  C   -0.004913   0.005395  -0.044151   0.369558   0.367690   0.346069
    18  C    0.005862  -0.005257  -0.048283  -0.004437   0.005444  -0.004890
    19  N   -0.002660   0.004391  -0.000050   0.014010   0.001498   0.001391
    20  C   -0.000069   0.000286   0.000001   0.000020   0.000000  -0.000000
    21  O   -0.000000  -0.000000  -0.000000  -0.000001  -0.000000  -0.000000
    22  H   -0.000001   0.000000   0.000000   0.000000   0.000000   0.000000
    23  H   -0.000011   0.000001   0.000000  -0.000150  -0.000000  -0.000030
    24  H    0.000005   0.000004   0.000001   0.001676  -0.000002   0.000018
    25  H    0.000000  -0.000000   0.000000  -0.000008  -0.000000  -0.000000
    26  H    0.000000  -0.000000  -0.000000  -0.000000   0.000000  -0.000000
    27  H    0.000000  -0.000000  -0.000000   0.000000   0.000000   0.000000
    28  H   -0.000000  -0.000000   0.000000  -0.000000   0.000000  -0.000000
    29  H   -0.000000  -0.000001   0.000000  -0.000000   0.000000  -0.000000
    30  H   -0.000069   0.004319   0.000008  -0.000000  -0.000000  -0.000000
    31  H    0.584153  -0.032687  -0.004178  -0.000008   0.004228   0.000101
    32  H   -0.032687   0.604422  -0.003761  -0.000017  -0.000036  -0.000151
    33  H   -0.004178  -0.003761   0.647107   0.005009  -0.003220  -0.004372
    34  H   -0.000008  -0.000017   0.005009   0.527456  -0.026386  -0.027830
    35  H    0.004228  -0.000036  -0.003220  -0.026386   0.592545  -0.032305
    36  H    0.000101  -0.000151  -0.004372  -0.027830  -0.032305   0.633527
    37  H   -0.000160  -0.000006  -0.003505  -0.000257  -0.000029   0.004765
    38  H    0.000039  -0.000244   0.005671   0.004287  -0.000001  -0.000288
    39  H   -0.000057   0.004874  -0.003339  -0.000029  -0.000205  -0.000016
              37         38         39
     1  O    0.000000   0.000000  -0.000000
     2  C   -0.000000   0.000008  -0.000000
     3  C    0.000002  -0.000106   0.000000
     4  C   -0.000001   0.000167   0.000001
     5  C   -0.000000   0.000273  -0.000002
     6  C   -0.000000  -0.000005   0.000000
     7  N    0.000000  -0.000003   0.000000
     8  C    0.000000   0.000001  -0.000003
     9  C   -0.000000   0.000000   0.000000
    10  O    0.000000  -0.000000   0.000000
    11  C   -0.000000  -0.000007  -0.000003
    12  C    0.000002  -0.000030   0.000116
    13  C    0.000016  -0.000668   0.000223
    14  C    0.000042   0.008821  -0.000568
    15  C    0.005497  -0.009898  -0.003775
    16  C   -0.029736  -0.034195  -0.032398
    17  C   -0.004382  -0.005070   0.005447
    18  C    0.367095   0.370892   0.364433
    19  N    0.000026   0.001121   0.000099
    20  C    0.000000   0.000832  -0.000036
    21  O   -0.000000  -0.000000  -0.000000
    22  H   -0.000000   0.000000   0.000000
    23  H   -0.000000  -0.000005  -0.000000
    24  H   -0.000001   0.001313  -0.000003
    25  H   -0.000000   0.000009  -0.000000
    26  H    0.000000   0.000000   0.000000
    27  H    0.000000  -0.000000  -0.000000
    28  H   -0.000000   0.000000   0.000000
    29  H   -0.000000   0.000000  -0.000000
    30  H   -0.000000   0.000006  -0.000015
    31  H   -0.000160   0.000039  -0.000057
    32  H   -0.000006  -0.000244   0.004874
    33  H   -0.003505   0.005671  -0.003339
    34  H   -0.000257   0.004287  -0.000029
    35  H   -0.000029  -0.000001  -0.000205
    36  H    0.004765  -0.000288  -0.000016
    37  H    0.583438  -0.028925  -0.029783
    38  H   -0.028925   0.570135  -0.029445
    39  H   -0.029783  -0.029445   0.591772
 Mulliken charges:
               1
     1  O   -0.597596
     2  C    0.621385
     3  C   -0.082005
     4  C   -0.339495
     5  C    0.043132
     6  C    0.001036
     7  N   -0.687436
     8  C    0.302848
     9  C    0.339485
    10  O   -0.700571
    11  C   -0.211945
    12  C   -0.215678
    13  C    0.089465
    14  C    0.250186
    15  C   -0.304865
    16  C   -0.067427
    17  C   -0.418022
    18  C   -0.441294
    19  N   -0.447204
    20  C    0.043924
    21  O   -0.490113
    22  H    0.418705
    23  H    0.183509
    24  H    0.166053
    25  H    0.156959
    26  H    0.149025
    27  H    0.349621
    28  H    0.417031
    29  H    0.111485
    30  H    0.132242
    31  H    0.152344
    32  H    0.132334
    33  H    0.117146
    34  H    0.173870
    35  H    0.126041
    36  H    0.111898
    37  H    0.135902
    38  H    0.145315
    39  H    0.132711
 Sum of Mulliken charges =  -0.00000
 Mulliken charges with hydrogens summed into heavy atoms:
               1
     1  O   -0.178891
     2  C    0.621385
     3  C    0.101505
     4  C   -0.016484
     5  C    0.043132
     6  C    0.150061
     7  N   -0.337815
     8  C    0.302848
     9  C    0.339485
    10  O   -0.283540
    11  C   -0.100460
    12  C   -0.083436
    13  C    0.089465
    14  C    0.250186
    15  C   -0.020188
    16  C    0.049719
    17  C   -0.006213
    18  C   -0.027366
    19  N   -0.447204
    20  C    0.043924
    21  O   -0.490113
 Electronic spatial extent (au):  <R**2>=           5507.3938
 Charge=             -0.0000 electrons
 Dipole moment (field-independent basis, Debye):
    X=              4.0700    Y=             -2.8421    Z=             -0.1402  Tot=              4.9661
 Quadrupole moment (field-independent basis, Debye-Ang):
   XX=           -108.9424   YY=           -126.1529   ZZ=           -110.5145
   XY=             -5.6292   XZ=             -0.1919   YZ=              8.1077
 Traceless Quadrupole moment (field-independent basis, Debye-Ang):
   XX=              6.2609   YY=            -10.9496   ZZ=              4.6887
   XY=             -5.6292   XZ=             -0.1919   YZ=              8.1077
 Octapole moment (field-independent basis, Debye-Ang**2):
  XXX=            126.2605  YYY=            -55.5095  ZZZ=            -32.0536  XYY=             22.5888
  XXY=            -27.5702  XXZ=             -2.1514  XZZ=             33.1925  YZZ=             23.9175
  YYZ=            -11.7801  XYZ=             16.4679
 Hexadecapole moment (field-independent basis, Debye-Ang**3):
 XXXX=          -3568.7803 YYYY=          -2452.5792 ZZZZ=           -977.8197 XXXY=           -173.8215
 XXXZ=             23.4153 YYYX=           -170.3321 YYYZ=             63.4130 ZZZX=              8.0459
 ZZZY=            -55.2147 XXYY=           -869.4053 XXZZ=           -737.9041 YYZZ=           -487.4404
 XXYZ=             84.9974 YYXZ=            -42.7171 ZZXY=              7.9445
 N-N= 1.745836264328D+03 E-N=-5.716755184778D+03  KE= 9.464564980807D+02
 Calling FoFJK, ICntrl=      2127 FMM=F ISym2X=0 I1Cent= 0 IOpClX= 0 NMat=1 NMatS=1 NMatT=0.
 ***** Axes restored to original set *****
 -------------------------------------------------------------------
 Center     Atomic                   Forces (Hartrees/Bohr)
 Number     Number              X              Y              Z
 -------------------------------------------------------------------
      1        8           0.009623103   -0.001466408   -0.011501782
      2        6          -0.074865268    0.049354783    0.061089209
      3        6           0.023642144   -0.030902144    0.000166413
      4        6          -0.014079833    0.007400679   -0.011857255
      5        6          -0.022971741    0.036153530   -0.023305786
      6        6           0.014318004    0.036039626   -0.008004212
      7        7          -0.042123833   -0.000922232   -0.016733891
      8        6          -0.026728167   -0.058101647    0.018493000
      9        6           0.004133858   -0.046658617    0.025256659
     10        8          -0.012018998   -0.003506544   -0.003028443
     11        6          -0.001469267    0.012772393   -0.004845013
     12        6          -0.007390148    0.010491971   -0.012478068
     13        6           0.019680647   -0.030601351    0.012522112
     14        6          -0.030678743    0.033948912    0.005545177
     15        6           0.008368451   -0.008171003    0.010424502
     16        6           0.002150971    0.006217116   -0.005687800
     17        6           0.010044674    0.007306806   -0.006991967
     18        6          -0.000522407   -0.005645128   -0.006520471
     19        7           0.012879918   -0.016740606    0.001869364
     20        6           0.029360968   -0.003099602    0.014980826
     21        8           0.042524877   -0.045226544   -0.013651600
     22        1           0.007469580    0.019705027   -0.039319177
     23        1          -0.004389596   -0.007902183    0.005030245
     24        1           0.000552559    0.006147830    0.010790049
     25        1           0.006439981   -0.007389855    0.000411814
     26        1          -0.004347370   -0.003117059    0.000028616
     27        1           0.029095799    0.005888310    0.006761538
     28        1           0.023559116    0.037361351   -0.010814423
     29        1          -0.001761876   -0.002687752    0.001250250
     30        1           0.002600022   -0.000280003   -0.000438643
     31        1          -0.002995502   -0.002643013   -0.007484098
     32        1           0.000272308    0.010761671    0.001248079
     33        1          -0.007904078    0.003381062    0.003793286
     34        1           0.016043172   -0.007261597    0.001116322
     35        1          -0.006424658    0.000287723   -0.006740406
     36        1          -0.002755119   -0.002211609    0.006372678
     37        1          -0.007129190   -0.001205156    0.006229943
     38        1           0.008261519   -0.006204626   -0.001221343
     39        1          -0.000465876    0.008725887   -0.002755701
 -------------------------------------------------------------------
 Cartesian Forces:  Max     0.074865268 RMS     0.019401284

 GradGradGradGradGradGradGradGradGradGradGradGradGradGradGradGradGradGrad
 Berny optimization.
 FormGI is forming the generalized inverse of G from B-inverse, IUseBI=4.
 Internal  Forces:  Max     0.063447291 RMS     0.011756711
 Search for a local minimum.
 Step number   1 out of a maximum of  230
 All quantities printed in internal units (Hartrees-Bohrs-Radians)
 Mixed Optimization -- RFO/linear search
 Second derivative matrix not updated -- first step.
 ITU=  0
     Eigenvalues ---    0.00230   0.00285   0.00322   0.00581   0.00636
     Eigenvalues ---    0.00804   0.00929   0.01033   0.01443   0.01595
     Eigenvalues ---    0.01662   0.01784   0.01791   0.01831   0.01899
     Eigenvalues ---    0.01966   0.01982   0.02051   0.02130   0.02197
[...]
    35  H   -0.000000   0.000000   0.000000   0.000000   0.000000  -0.000001
    36  H   -0.000000   0.000000   0.000000  -0.000000  -0.000000  -0.000001
    37  H    0.000000  -0.000000  -0.000001   0.000000   0.000000   0.000109
    38  H   -0.000006   0.000039   0.000013  -0.000000  -0.000147  -0.000115
    39  H    0.000000  -0.000011  -0.000009  -0.000000   0.000263   0.001724
              13         14         15         16         17         18
     1  O    0.002185   0.003442  -0.000209  -0.000000  -0.000000   0.000000
     2  C    0.002910  -0.007032  -0.000222  -0.000007   0.000002  -0.000000
     3  C   -0.010245  -0.063625   0.008235  -0.000076  -0.000202  -0.000005
     4  C   -0.017672   0.002558  -0.000510   0.000014  -0.000102  -0.000006
     5  C   -0.103329  -0.018138   0.000149   0.000020  -0.000006  -0.000028
     6  C    0.017607  -0.000365   0.000004  -0.000000  -0.000000   0.000002
     7  N    0.011633  -0.000093   0.000001  -0.000000   0.000000   0.000000
     8  C   -0.047989   0.009382  -0.000187   0.000004   0.000000  -0.000052
     9  C   -0.054691  -0.000230  -0.000007   0.000003  -0.000000   0.000006
    10  O    0.000344   0.000001  -0.000000  -0.000000   0.000000   0.000000
    11  C   -0.012249   0.005595   0.000498  -0.000013   0.000001  -0.000113
    12  C    0.468444  -0.055789  -0.006553  -0.001135  -0.000015   0.000109
    13  C    5.090205   0.300310  -0.079227  -0.002421   0.000067   0.001854
    14  C    0.300310   4.811000   0.356005  -0.026961  -0.006724  -0.006408
    15  C   -0.079227   0.356005   5.208786   0.373489  -0.051223  -0.048781
    16  C   -0.002421  -0.026961   0.373489   4.830699   0.387242   0.381417
    17  C    0.000067  -0.006724  -0.051223   0.387242   5.102906  -0.057491
    18  C    0.001854  -0.006408  -0.048781   0.381417  -0.057491   5.115953
    19  N   -0.047658   0.545957  -0.091058  -0.006271   0.001238  -0.000266
    20  C    0.405865  -0.038427   0.003919  -0.000116   0.000056  -0.000740
    21  O   -0.000142   0.000110   0.000001   0.000000   0.000000  -0.000000
    22  H    0.000092  -0.000238  -0.000008  -0.000000   0.000000  -0.000000
    23  H   -0.000316   0.003816  -0.000072   0.000010  -0.000002   0.000000
    24  H    0.002073  -0.000477  -0.000163  -0.000031  -0.000018   0.000001
    25  H   -0.000139  -0.000031   0.000007  -0.000000   0.000001  -0.000000
    26  H   -0.000157   0.000000  -0.000000  -0.000000  -0.000000   0.000000
    27  H   -0.000007   0.000002  -0.000000   0.000000   0.000000   0.000000
    28  H   -0.000072  -0.000001   0.000000  -0.000000  -0.000000  -0.000000
    29  H    0.002741  -0.000130   0.000007  -0.000000  -0.000000  -0.000000
    30  H   -0.035123  -0.007986   0.002704  -0.000074   0.000002  -0.000265
    31  H    0.005291  -0.029739   0.349788  -0.029730  -0.005756   0.005436
    32  H   -0.003597  -0.031846   0.345290  -0.034184   0.005877  -0.004975
    33  H   -0.000234   0.004849  -0.044729   0.377921  -0.047156  -0.047485
    34  H   -0.000113   0.005884  -0.007664  -0.031512   0.372177  -0.004975
    35  H    0.000015  -0.000715  -0.003753  -0.028531   0.371330   0.005141
    36  H    0.000023   0.000209   0.005038  -0.031484   0.363679  -0.003618
    37  H    0.000128   0.000018   0.005137  -0.029690  -0.003373   0.365899
    38  H    0.001193   0.003981  -0.006960  -0.031683  -0.005053   0.374055
    39  H    0.000273  -0.000652  -0.002810  -0.030173   0.005182   0.368462
              19         20         21         22         23         24
     1  O   -0.000403  -0.000074  -0.085554   0.215397   0.001124  -0.000052
     2  C   -0.030154  -0.000420   0.536998  -0.008389  -0.047079   0.005964
     3  C    0.264689  -0.002146  -0.070954   0.010961   0.377651  -0.043968
     4  C   -0.044044  -0.060500  -0.000265  -0.000258  -0.039631   0.364816
     5  C   -0.003735   0.421347  -0.000879   0.000026   0.005202  -0.030161
     6  C    0.000086   0.022542  -0.000265   0.000004  -0.000147   0.000440
     7  N    0.000003  -0.062575  -0.000002  -0.000000   0.000000  -0.000039
     8  C   -0.000039   0.419995   0.000025  -0.000014   0.000005  -0.000190
     9  C   -0.000015  -0.037738   0.000001   0.000001  -0.000000   0.000006
    10  O   -0.000000   0.002737   0.000000   0.000000   0.000000  -0.000000
    11  C   -0.000108  -0.044163  -0.000000  -0.000000  -0.000000  -0.000002
    12  C    0.005897  -0.022276   0.000002   0.000023   0.000005   0.000016
    13  C   -0.047658   0.405865  -0.000142   0.000092  -0.000316   0.002073
    14  C    0.545957  -0.038427   0.000110  -0.000238   0.003816  -0.000477
    15  C   -0.091058   0.003919   0.000001  -0.000008  -0.000072  -0.000163
    16  C   -0.006271  -0.000116   0.000000  -0.000000   0.000010  -0.000031
    17  C    0.001238   0.000056   0.000000   0.000000  -0.000002  -0.000018
    18  C   -0.000266  -0.000740  -0.000000  -0.000000   0.000000   0.000001
    19  N    6.896967  -0.015069   0.002352  -0.000369  -0.053066  -0.003592
    20  C   -0.015069   4.996299  -0.001056   0.000022   0.000487  -0.004162
    21  O    0.002352  -0.001056   8.076905   0.010913   0.000191   0.000129
    22  H   -0.000369   0.000022   0.010913   0.367270  -0.000446   0.000006
    23  H   -0.053066   0.000487   0.000191  -0.000446   0.583098  -0.003567
    24  H   -0.003592  -0.004162   0.000129   0.000006  -0.003567   0.583676
    25  H    0.004297   0.004011   0.007907  -0.000021  -0.001077  -0.034759
    26  H    0.000001   0.003694  -0.000008   0.000000   0.000003   0.000038
    27  H   -0.000000   0.007113  -0.000000   0.000000  -0.000000   0.000003
    28  H    0.000000  -0.000035   0.000000   0.000000   0.000000   0.000000
    29  H    0.000001   0.001115  -0.000000  -0.000000   0.000000  -0.000000
    30  H    0.000042   0.003812   0.000000  -0.000001   0.000000   0.000000
    31  H    0.005199  -0.000078  -0.000000   0.000001  -0.000061   0.000011
    32  H    0.003841   0.000192  -0.000000   0.000001   0.000001   0.000002
    33  H   -0.000056   0.000005  -0.000000   0.000000  -0.000000   0.000001
    34  H    0.003441   0.000073  -0.000000   0.000000  -0.000047   0.001937
    35  H    0.001194  -0.000001  -0.000000   0.000000  -0.000004  -0.000002
    36  H    0.000159  -0.000002  -0.000000   0.000000  -0.000001  -0.000001
    37  H   -0.000004  -0.000002   0.000000  -0.000000   0.000000   0.000000
    38  H    0.000073   0.001408   0.000000   0.000000  -0.000000   0.000044
    39  H    0.000005  -0.000023  -0.000000   0.000000   0.000000  -0.000000
              25         26         27         28         29         30
     1  O    0.000144   0.000000  -0.000000  -0.000000   0.000000  -0.000001
     2  C   -0.005648  -0.000010   0.000000   0.000000  -0.000000  -0.000001
     3  C   -0.019228   0.000048   0.000002   0.000000   0.000000  -0.000000
     4  C    0.339884  -0.003054  -0.000088  -0.000000   0.000000  -0.000001
     5  C   -0.027924  -0.027881   0.003428   0.000009   0.000011  -0.000170
     6  C   -0.006384   0.364520  -0.028954   0.000004   0.000001   0.000005
     7  N    0.000014  -0.050041   0.325468  -0.000292  -0.000109   0.000004
     8  C    0.000015   0.004863  -0.028112   0.006120   0.003989   0.000841
     9  C    0.000003  -0.000128  -0.007255  -0.029746  -0.043259   0.003303
    10  O   -0.000000  -0.000000   0.004984   0.245792  -0.004698  -0.000053
    11  C   -0.000000   0.000003   0.000059  -0.006405   0.343747  -0.036898
    12  C    0.000006   0.000003  -0.000030   0.000532  -0.027892   0.347179
    13  C   -0.000139  -0.000157  -0.000007  -0.000072   0.002741  -0.035123
    14  C   -0.000031   0.000000   0.000002  -0.000001  -0.000130  -0.007986
    15  C    0.000007  -0.000000  -0.000000   0.000000   0.000007   0.002704
    16  C   -0.000000  -0.000000   0.000000  -0.000000  -0.000000  -0.000074
    17  C    0.000001  -0.000000   0.000000  -0.000000  -0.000000   0.000002
    18  C   -0.000000   0.000000   0.000000  -0.000000  -0.000000  -0.000265
    19  N    0.004297   0.000001  -0.000000   0.000000   0.000001   0.000042
    20  C    0.004011   0.003694   0.007113  -0.000035   0.001115   0.003812
    21  O    0.007907  -0.000008  -0.000000   0.000000  -0.000000   0.000000
    22  H   -0.000021   0.000000   0.000000   0.000000  -0.000000  -0.000001
    23  H   -0.001077   0.000003  -0.000000   0.000000   0.000000   0.000000
    24  H   -0.034759   0.000038   0.000003   0.000000  -0.000000   0.000000
    25  H    0.575686   0.002939  -0.000006   0.000000   0.000000  -0.000000
    26  H    0.002939   0.552058  -0.001862  -0.000000  -0.000000  -0.000000
    27  H   -0.000006  -0.001862   0.385242  -0.000216   0.000000  -0.000000
    28  H    0.000000  -0.000000  -0.000216   0.363194   0.006902  -0.000011
    29  H    0.000000  -0.000000   0.000000   0.006902   0.607326  -0.005545
    30  H   -0.000000  -0.000000  -0.000000  -0.000011  -0.005545   0.588342
    31  H   -0.000000   0.000000   0.000000  -0.000000  -0.000000  -0.000212
    32  H   -0.000000  -0.000000   0.000000  -0.000000  -0.000000   0.006338
    33  H    0.000000  -0.000000  -0.000000   0.000000   0.000000   0.000026
    34  H    0.000003  -0.000000   0.000000  -0.000000   0.000000  -0.000001
    35  H   -0.000000   0.000000   0.000000  -0.000000  -0.000000  -0.000000
    36  H   -0.000000  -0.000000   0.000000  -0.000000  -0.000000  -0.000000
    37  H   -0.000000   0.000000   0.000000  -0.000000   0.000000  -0.000003
    38  H    0.000001   0.000000  -0.000000   0.000000  -0.000000   0.000042
    39  H   -0.000000  -0.000000  -0.000000  -0.000000   0.000003   0.000572
              31         32         33         34         35         36
     1  O    0.000040   0.000005   0.000000  -0.000000  -0.000000   0.000000
     2  C    0.000025   0.000012   0.000000   0.000020   0.000000   0.000000
     3  C    0.000020  -0.000243   0.000009   0.000184   0.000013  -0.000002
     4  C    0.000032   0.000007  -0.000001  -0.000049   0.000003   0.000001
     5  C   -0.000013  -0.000004  -0.000000  -0.000084  -0.000000   0.000000
     6  C   -0.000000  -0.000000   0.000000  -0.000001   0.000000   0.000000
     7  N   -0.000000   0.000000   0.000000  -0.000000  -0.000000  -0.000000
     8  C    0.000002   0.000010  -0.000000   0.000002   0.000000   0.000000
     9  C    0.000000  -0.000012   0.000000   0.000000   0.000000   0.000000
    10  O    0.000000   0.000000  -0.000000  -0.000000   0.000000  -0.000000
    11  C   -0.000005   0.000484  -0.000000   0.000000   0.000000  -0.000000
    12  C   -0.000031  -0.000632  -0.000014  -0.000017  -0.000001  -0.000001
    13  C    0.005291  -0.003597  -0.000234  -0.000113   0.000015   0.000023
    14  C   -0.029739  -0.031846   0.004849   0.005884  -0.000715   0.000209
    15  C    0.349788   0.345290  -0.044729  -0.007664  -0.003753   0.005038
    16  C   -0.029730  -0.034184   0.377921  -0.031512  -0.028531  -0.031484
    17  C   -0.005756   0.005877  -0.047156   0.372177   0.371330   0.363679
    18  C    0.005436  -0.004975  -0.047485  -0.004975   0.005141  -0.003618
    19  N    0.005199   0.003841  -0.000056   0.003441   0.001194   0.000159
    20  C   -0.000078   0.000192   0.000005   0.000073  -0.000001  -0.000002
    21  O   -0.000000  -0.000000  -0.000000  -0.000000  -0.000000  -0.000000
    22  H    0.000001   0.000001   0.000000   0.000000   0.000000   0.000000
    23  H   -0.000061   0.000001  -0.000000  -0.000047  -0.000004  -0.000001
    24  H    0.000011   0.000002   0.000001   0.001937  -0.000002  -0.000001
    25  H   -0.000000  -0.000000   0.000000   0.000003  -0.000000  -0.000000
    26  H    0.000000  -0.000000  -0.000000  -0.000000   0.000000  -0.000000
    27  H    0.000000   0.000000  -0.000000   0.000000   0.000000   0.000000
    28  H   -0.000000  -0.000000   0.000000  -0.000000  -0.000000  -0.000000
    29  H   -0.000000  -0.000000   0.000000   0.000000  -0.000000  -0.000000
    30  H   -0.000212   0.006338   0.000026  -0.000001  -0.000000  -0.000000
    31  H    0.575834  -0.031752  -0.004900  -0.000113   0.004480   0.000113
    32  H   -0.031752   0.617037  -0.005195   0.000009   0.000013  -0.000149
    33  H   -0.004900  -0.005195   0.649916   0.005813  -0.003289  -0.004669
    34  H   -0.000113   0.000009   0.005813   0.564517  -0.029616  -0.032209
    35  H    0.004480   0.000013  -0.003289  -0.029616   0.570014  -0.030743
    36  H    0.000113  -0.000149  -0.004669  -0.032209  -0.030743   0.599989
    37  H   -0.000137  -0.000041  -0.004927  -0.000408  -0.000040   0.004107
    38  H   -0.000058  -0.000193   0.005806   0.004780  -0.000026  -0.000376
    39  H   -0.000023   0.003221  -0.003249  -0.000026  -0.000183  -0.000030
              37         38         39
     1  O    0.000000   0.000000  -0.000000
     2  C   -0.000000   0.000001   0.000000
     3  C   -0.000000   0.000003  -0.000000
     4  C    0.000000   0.000012   0.000000
     5  C   -0.000001   0.000079  -0.000002
     6  C   -0.000000  -0.000005   0.000000
     7  N    0.000000  -0.000006   0.000000
     8  C   -0.000000   0.000039  -0.000011
     9  C   -0.000001   0.000013  -0.000009
    10  O    0.000000  -0.000000  -0.000000
    11  C    0.000000  -0.000147   0.000263
    12  C    0.000109  -0.000115   0.001724
    13  C    0.000128   0.001193   0.000273
    14  C    0.000018   0.003981  -0.000652
    15  C    0.005137  -0.006960  -0.002810
    16  C   -0.029690  -0.031683  -0.030173
    17  C   -0.003373  -0.005053   0.005182
    18  C    0.365899   0.374055   0.368462
    19  N   -0.000004   0.000073   0.000005
    20  C   -0.000002   0.001408  -0.000023
    21  O    0.000000   0.000000  -0.000000
    22  H   -0.000000   0.000000   0.000000
    23  H    0.000000  -0.000000   0.000000
    24  H    0.000000   0.000044  -0.000000
    25  H   -0.000000   0.000001  -0.000000
    26  H    0.000000   0.000000  -0.000000
    27  H    0.000000  -0.000000  -0.000000
    28  H   -0.000000   0.000000  -0.000000
    29  H    0.000000  -0.000000   0.000003
    30  H   -0.000003   0.000042   0.000572
    31  H   -0.000137  -0.000058  -0.000023
    32  H   -0.000041  -0.000193   0.003221
    33  H   -0.004927   0.005806  -0.003249
    34  H   -0.000408   0.004780  -0.000026
    35  H   -0.000040  -0.000026  -0.000183
    36  H    0.004107  -0.000376  -0.000030
    37  H    0.590058  -0.031540  -0.030504
    38  H   -0.031540   0.566368  -0.032166
    39  H   -0.030504  -0.032166   0.585496
 Mulliken charges:
               1
     1  O   -0.558997
     2  C    0.602600
     3  C   -0.099035
     4  C   -0.343868
     5  C    0.076470
     6  C    0.003946
     7  N   -0.689807
     8  C    0.295479
     9  C    0.323597
    10  O   -0.659859
    11  C   -0.214732
    12  C   -0.212913
    13  C    0.102127
    14  C    0.242486
    15  C   -0.314922
    16  C   -0.066728
    17  C   -0.432641
    18  C   -0.443129
    19  N   -0.439537
    20  C   -0.005091
    21  O   -0.476409
    22  H    0.405025
    23  H    0.173923
    24  H    0.162023
    25  H    0.160301
    26  H    0.154970
    27  H    0.340231
    28  H    0.414224
    29  H    0.115793
    30  H    0.133131
    31  H    0.156332
    32  H    0.130484
    33  H    0.121559
    34  H    0.147996
    35  H    0.144701
    36  H    0.129966
    37  H    0.135217
    38  H    0.150430
    39  H    0.134658
 Sum of Mulliken charges =  -0.00000
 Mulliken charges with hydrogens summed into heavy atoms:
               1
     1  O   -0.153972
     2  C    0.602600
     3  C    0.074889
     4  C   -0.021544
     5  C    0.076470
     6  C    0.158917
     7  N   -0.349576
     8  C    0.295479
     9  C    0.323597
    10  O   -0.245635
    11  C   -0.098940
    12  C   -0.079782
    13  C    0.102127
    14  C    0.242486
    15  C   -0.028106
    16  C    0.054831
    17  C   -0.009979
    18  C   -0.022825
    19  N   -0.439537
    20  C   -0.005091
    21  O   -0.476409
 Electronic spatial extent (au):  <R**2>=           5521.7018
 Charge=             -0.0000 electrons
 Dipole moment (field-independent basis, Debye):
    X=              2.9380    Y=             -3.0950    Z=             -0.2990  Tot=              4.2779
 Quadrupole moment (field-independent basis, Debye-Ang):
   XX=           -113.4933   YY=           -119.6899   ZZ=           -112.4958
   XY=             -6.3666   XZ=              0.8778   YZ=              6.6092
 Traceless Quadrupole moment (field-independent basis, Debye-Ang):
   XX=              1.7330   YY=             -4.4636   ZZ=              2.7305
   XY=             -6.3666   XZ=              0.8778   YZ=              6.6092
 Octapole moment (field-independent basis, Debye-Ang**2):
  XXX=             77.6639  YYY=            -43.6656  ZZZ=            -23.2823  XYY=             19.2517
  XXY=            -29.3010  XXZ=              7.2456  XZZ=             32.1426  YZZ=             18.8488
  YYZ=            -28.9701  XYZ=             12.0174
 Hexadecapole moment (field-independent basis, Debye-Ang**3):
 XXXX=          -3352.6330 YYYY=          -2633.3687 ZZZZ=           -964.6405 XXXY=            -83.6707
 XXXZ=             72.9184 YYYX=           -243.0723 YYYZ=             41.6508 ZZZX=              1.0437
 ZZZY=            -54.4538 XXYY=           -953.2660 XXZZ=           -687.3067 YYZZ=           -513.7817
 XXYZ=             55.3521 YYXZ=            -65.3401 ZZXY=             10.1121
 N-N= 1.739457045396D+03 E-N=-5.703940199960D+03  KE= 9.468492394982D+02
 1\1\GINC-C072\FOpt\RB3LYP\6-31G(d)\C16H18N2O3\XYCAO\28-Dec-2023\0\\# o
 pt b3lyp/6-31g(d)\\molecule_8_1\\0,1\O,-0.7030755158,1.7615577214,2.94
 71517436\C,-1.145409441,2.5453143877,1.9406598898\C,-0.2076329073,2.59
 54889663,0.7283375394\C,-1.0365100358,2.5783100483,-0.5814828013\C,-1.
 8958122855,1.3568532661,-0.6671164193\C,-3.1804716934,1.2504974648,-1.
 1440175612\N,-3.6362316307,-0.0406305422,-0.9788897426\C,-2.6519848668
 ,-0.7794954317,-0.3650523878\C,-2.6644696061,-2.1174713454,0.039363655
 5\O,-3.800217827,-2.8423358768,-0.2006056098\C,-1.5218987926,-2.605682
 7574,0.6627044141\C,-0.3957666474,-1.7844671459,0.8526331842\C,-0.3551
 468129,-0.4416860293,0.4588820984\C,0.8599186255,0.4015846065,0.648285
 1822\C,2.2240131239,-0.2845372257,0.6938680451\C,2.9229024698,-0.48813
 17944,-0.68181746\C,3.2609414285,0.8423630155,-1.369261923\C,2.1534953
 469,-1.4188008559,-1.6310104515\N,0.9239434704,1.6839559168,0.75255572
 64\C,-1.5342261277,0.065151668,-0.1560494109\O,-2.1652864205,3.1963389
 371,2.0214870358\H,-1.3702301173,1.8474349668,3.6546554995\H,0.2297505
 939,3.6027383241,0.7988651233\H,-0.3202702968,2.6353025921,-1.41144267
 46\H,-1.6530846845,3.4819170161,-0.6205617866\H,-3.8173158824,2.007985
 9541,-1.5798848933\H,-4.5505370946,-0.3877789778,-1.2215726777\H,-3.67
 28417094,-3.7449256196,0.1311282736\H,-1.4955969546,-3.638828862,1.003
 640501\H,0.4618058419,-2.2292316398,1.342978238\H,2.8682558688,0.34925
 17204,1.3102651345\H,2.1603206315,-1.2588553261,1.189073846\H,3.876439
 118,-0.982869115,-0.4425542589\H,2.3549364485,1.3880884056,-1.65290015
 75\H,3.8411367394,1.4970417578,-0.7097957476\H,3.8478408474,0.66480568
 19,-2.2788904229\H,2.7432490191,-1.6147446114,-2.534855333\H,1.2014275
 592,-0.976574132,-1.945375542\H,1.9290602174,-2.383465129,-1.161117868
 8\\Version=ES64L-G16RevA.03\State=1-A\HF=-955.7180261\RMSD=6.462e-09\R
 MSF=7.108e-06\Dipole=-0.9361506,-1.378549,-0.2362922\Quadrupole=0.0686
 088,1.8217966,-1.8904054,3.8925391,3.0326633,-5.2512863\PG=C01 [X(C16H
 18N2O3)]\\@


 MORNING PEOPLE ARE USUALLY ADMIRED AS EARLY BIRDS.
 RECALL BEN FRANKLIN'S APHORISM THAT THE EARLY BIRD GETS THE WORM.
 I IDENTIFY WITH THE WORM. --  CRAIG JAGGER, MINNEAPOLIS, KS.
 Job cpu time:       0 days  1 hours 55 minutes 35.2 seconds.
 Elapsed time:       0 days  0 hours  3 minutes 40.8 seconds.
 File lengths (MBytes):  RWF=     83 Int=      0 D2E=      0 Chk=     11 Scr=      1
 Normal termination of Gaussian 16 at Thu Dec 28 10:08:39 2023.
