 Entering Gaussian System, Link 0=g16
 Input=molecule_15_1.com
 Output=molecule_15_1.log
 Initial command:
 /share/apps/g16/A03/l1.exe "/tmp/954126.tmpdir/scr/Gau-58663.inp" -scrdir="/tmp/954126.tmpdir/scr/"
 Entering Link 1 = /share/apps/g16/A03/l1.exe PID=     58665.
  
 Copyright (c) 1988,1990,1992,1993,1995,1998,2003,2009,2016,
            Gaussian, Inc.  All Rights Reserved.
  
 This is part of the Gaussian(R) 16 program.  It is based on
 the Gaussian(R) 09 system (copyright 2009, Gaussian, Inc.),
 the Gaussian(R) 03 system (copyright 2003, Gaussian, Inc.),
 the Gaussian(R) 98 system (copyright 1998, Gaussian, Inc.),
 the Gaussian(R) 94 system (copyright 1995, Gaussian, Inc.),
 the Gaussian 92(TM) system (copyright 1992, Gaussian, Inc.),
 the Gaussian 90(TM) system (copyright 1990, Gaussian, Inc.),
 the Gaussian 88(TM) system (copyright 1988, Gaussian, Inc.),
 the Gaussian 86(TM) system (copyright 1986, Carnegie Mellon
 University), and the Gaussian 82(TM) system (copyright 1983,
 Carnegie Mellon University). Gaussian is a federally registered
 trademark of Gaussian, Inc.
  
 This software contains proprietary and confidential information,
 including trade secrets, belonging to Gaussian, Inc.
  
 This software is provided under written license and may be
 used, copied, transmitted, or stored only in accord with that
 written license.
  
 The following legend is applicable only to US Government
 contracts under FAR:
  
                    RESTRICTED RIGHTS LEGEND
  
 Use, reproduction and disclosure by the US Government is
 subject to restrictions as set forth in subparagraphs (a)
 and (c) of the Commercial Computer Software - Restricted
 Rights clause in FAR 52.227-19.
  
 Gaussian, Inc.
 340 Quinnipiac St., Bldg. 40, Wallingford CT 06492
  
  
 ---------------------------------------------------------------
 Warning -- This program may not be used in any manner that
 competes with the business of Gaussian, Inc. or will provide
 assistance to any competitor of Gaussian, Inc.  The licensee
 of this program is prohibited from giving any competitor of
 Gaussian, Inc. access to this program.  By using this program,
 the user acknowledges that Gaussian, Inc. is engaged in the
 business of creating and licensing software in the field of
 computational chemistry and represents and warrants to the
 licensee that it is not a competitor of Gaussian, Inc. and that
 it will not use this program in any manner prohibited above.
 ---------------------------------------------------------------
  

 Cite this work as:
 Gaussian 16, Revision A.03,
 M. J. Frisch, G. W. Trucks, H. B. Schlegel, G. E. Scuseria, 
 M. A. Robb, J. R. Cheeseman, G. Scalmani, V. Barone, 
 G. A. Petersson, H. Nakatsuji, X. Li, M. Caricato, A. V. Marenich, 
 J. Bloino, B. G. Janesko, R. Gomperts, B. Mennucci, H. P. Hratchian, 
 J. V. Ortiz, A. F. Izmaylov, J. L. Sonnenberg, D. Williams-Young, 
 F. Ding, F. Lipparini, F. Egidi, J. Goings, B. Peng, A. Petrone, 
 T. Henderson, D. Ranasinghe, V. G. Zakrzewski, J. Gao, N. Rega, 
 G. Zheng, W. Liang, M. Hada, M. Ehara, K. Toyota, R. Fukuda, 
 J. Hasegawa, M. Ishida, T. Nakajima, Y. Honda, O. Kitao, H. Nakai, 
 T. Vreven, K. Throssell, J. A. Montgomery, Jr., J. E. Peralta, 
 F. Ogliaro, M. J. Bearpark, J. J. Heyd, E. N. Brothers, K. N. Kudin, 
 V. N. Staroverov, T. A. Keith, R. Kobayashi, J. Normand, 
 K. Raghavachari, A. P. Rendell, J. C. Burant, S. S. Iyengar, 
 J. Tomasi, M. Cossi, J. M. Millam, M. Klene, C. Adamo, R. Cammi, 
 J. W. Ochterski, R. L. Martin, K. Morokuma, O. Farkas, 
 J. B. Foresman, and D. J. Fox, Gaussian, Inc., Wallingford CT, 2016.
 
 ******************************************
 Gaussian 16:  ES64L-G16RevA.03 25-Dec-2016
                28-Dec-2023 
 ******************************************
 %nprocs=32
 Will use up to   32 processors via shared memory.
 %chk=molecule_15_1.chk
 %mem=10GB
 --------------------
 # opt b3lyp/6-31g(d)
 --------------------
 1/18=20,19=15,26=3,38=1/1,3;
 2/9=110,12=2,17=6,18=5,40=1/2;
 3/5=1,6=6,7=1,11=2,25=1,30=1,71=1,74=-5/1,2,3;
 4//1;
 5/5=2,38=5/2;
 6/7=2,8=2,9=2,10=2,28=1/1;
 7//1,2,3,16;
 1/18=20,19=15,26=3/3(2);
 2/9=110/2;
 99//99;
 2/9=110/2;
 3/5=1,6=6,7=1,11=2,25=1,30=1,71=1,74=-5/1,2,3;
 4/5=5,16=3,69=1/1;
 5/5=2,38=5/2;
 7//1,2,3,16;
 1/18=20,19=15,26=3/3(-5);
 2/9=110/2;
 6/7=2,8=2,9=2,10=2,19=2,28=1/1;
 99/9=1/99;
 -------------
 molecule_15_1
 -------------
 Symbolic Z-matrix:
 Charge =  0 Multiplicity = 1
 O                    -4.0615   -2.997     0.8878 
 C                    -3.1943   -1.9102    0.7677 
 C                    -3.5775   -0.7476    0.0715 
 O                    -4.8494   -0.7405   -0.5307 
 C                    -5.79496  -1.80648  -0.50319 
 C                    -2.6777    0.3474    0.0063 
 O                    -3.0614    1.5482   -0.5935 
 C                    -4.35528   1.72139  -1.15746 
 C                    -1.3801    0.2242    0.5503 
 C                    -1.0178   -0.9541    1.2298 
 O                     0.2678   -1.103     1.7651 
 C                     1.2038   -0.028     1.8125 
 C                     1.0793    0.8573    0.5586 
 C                     1.5145    0.1219   -0.7311 
 C                     2.9512   -0.33215  -0.66892 
 C                     3.27353  -1.69495  -0.77767 
 C                     4.60584  -2.11182  -0.70278 
 C                     5.62755  -1.17517  -0.5152 
 O                     6.95041  -1.60468  -0.44234 
 C                     5.31128   0.18497  -0.40146 
 C                     3.97985   0.60468  -0.47645 
 C                    -0.3772    1.3543    0.448 
 C                    -1.9265   -2.0038    1.343 
 H                    -4.9932   -2.9941    0.4919 
 H                    -5.89079  -2.21645   0.5233 
 H                    -5.5032   -2.60121  -1.21804 
 H                    -6.78335  -1.41471  -0.8133 
 H                    -4.44916   2.75836  -1.5412 
 H                    -4.49772   1.01195  -2.00023 
 H                    -5.14297   1.54505  -0.39598 
 H                     0.9952    0.5863    2.7147 
 H                     2.2308   -0.4342    1.9196 
 H                     1.7325    1.7479    0.6921 
 H                     0.84632  -0.74396  -0.92741 
 H                     1.40388   0.80661  -1.59963 
 H                     2.49403  -2.43381  -0.91596 
 H                     4.84422  -3.16385  -0.78867 
 H                     7.71308  -0.95033  -0.30805 
 H                     6.09548   0.91692  -0.25415 
 H                     3.74955   1.65897  -0.38419 
 H                    -0.5698    2.0667    1.2779 
 H                    -0.5082    1.909    -0.5061 
 H                    -1.6383   -2.9082    1.8659 
 

 GradGradGradGradGradGradGradGradGradGradGradGradGradGradGradGradGradGrad
 Berny optimization.
 Initialization pass.
                           ----------------------------
                           !    Initial Parameters    !
                           ! (Angstroms and Degrees)  !
 --------------------------                            --------------------------
 ! Name  Definition              Value          Derivative Info.                !
 --------------------------------------------------------------------------------
 ! R1    R(1,2)                  1.3956         estimate D2E/DX2                !
 ! R2    R(1,24)                 1.0123         estimate D2E/DX2                !
 ! R3    R(2,3)                  1.4083         estimate D2E/DX2                !
 ! R4    R(2,23)                 1.3954         estimate D2E/DX2                !
 ! R5    R(3,4)                  1.4073         estimate D2E/DX2                !
 ! R6    R(3,6)                  1.4188         estimate D2E/DX2                !
 ! R7    R(4,5)                  1.4252         estimate D2E/DX2                !
 ! R8    R(5,25)                 1.1095         estimate D2E/DX2                !
 ! R9    R(5,26)                 1.108          estimate D2E/DX2                !
 ! R10   R(5,27)                 1.1075         estimate D2E/DX2                !
 ! R11   R(6,7)                  1.396          estimate D2E/DX2                !
 ! R12   R(6,9)                  1.4124         estimate D2E/DX2                !
 ! R13   R(7,8)                  1.422          estimate D2E/DX2                !
 ! R14   R(8,28)                 1.1097         estimate D2E/DX2                !
 ! R15   R(8,29)                 1.1108         estimate D2E/DX2                !
 ! R16   R(8,30)                 1.1097         estimate D2E/DX2                !
 ! R17   R(9,10)                 1.4076         estimate D2E/DX2                !
 ! R18   R(9,22)                 1.5144         estimate D2E/DX2                !
 ! R19   R(10,11)                1.4005         estimate D2E/DX2                !
 ! R20   R(10,23)                1.393          estimate D2E/DX2                !
 ! R21   R(11,12)                1.4262         estimate D2E/DX2                !
 ! R22   R(12,13)                1.54           estimate D2E/DX2                !
 ! R23   R(12,31)                1.1112         estimate D2E/DX2                !
 ! R24   R(12,32)                1.1096         estimate D2E/DX2                !
 ! R25   R(13,14)                1.5471         estimate D2E/DX2                !
 ! R26   R(13,22)                1.5429         estimate D2E/DX2                !
 ! R27   R(13,33)                1.1125         estimate D2E/DX2                !
 ! R28   R(14,15)                1.508          estimate D2E/DX2                !
 ! R29   R(14,34)                1.1112         estimate D2E/DX2                !
 ! R30   R(14,35)                1.1115         estimate D2E/DX2                !
 ! R31   R(15,16)                1.4046         estimate D2E/DX2                !
 ! R32   R(15,21)                1.4046         estimate D2E/DX2                !
 ! R33   R(16,17)                1.398          estimate D2E/DX2                !
 ! R34   R(16,36)                1.0829         estimate D2E/DX2                !
 ! R35   R(17,18)                1.3987         estimate D2E/DX2                !
 ! R36   R(17,37)                1.0821         estimate D2E/DX2                !
 ! R37   R(18,19)                1.3927         estimate D2E/DX2                !
 ! R38   R(18,20)                1.4011         estimate D2E/DX2                !
 ! R39   R(19,38)                1.0138         estimate D2E/DX2                !
 ! R40   R(20,21)                1.398          estimate D2E/DX2                !
 ! R41   R(20,39)                1.0828         estimate D2E/DX2                !
 ! R42   R(21,40)                1.0831         estimate D2E/DX2                !
 ! R43   R(22,41)                1.1106         estimate D2E/DX2                !
 ! R44   R(22,42)                1.1114         estimate D2E/DX2                !
 ! R45   R(23,43)                1.0837         estimate D2E/DX2                !
 ! A1    A(2,1,24)             122.4131         estimate D2E/DX2                !
 ! A2    A(1,2,3)              121.0888         estimate D2E/DX2                !
 ! A3    A(1,2,23)             118.4811         estimate D2E/DX2                !
 ! A4    A(3,2,23)             120.4268         estimate D2E/DX2                !
 ! A5    A(2,3,4)              117.4936         estimate D2E/DX2                !
 ! A6    A(2,3,6)              119.1638         estimate D2E/DX2                !
 ! A7    A(4,3,6)              123.3425         estimate D2E/DX2                !
 ! A8    A(3,4,5)              125.9874         estimate D2E/DX2                !
 ! A9    A(4,5,25)             110.582          estimate D2E/DX2                !
 ! A10   A(4,5,26)             110.4456         estimate D2E/DX2                !
 ! A11   A(4,5,27)             108.7911         estimate D2E/DX2                !
 ! A12   A(25,5,26)            110.7693         estimate D2E/DX2                !
 ! A13   A(25,5,27)            108.2216         estimate D2E/DX2                !
 ! A14   A(26,5,27)            107.9427         estimate D2E/DX2                !
 ! A15   A(3,6,7)              120.6167         estimate D2E/DX2                !
 ! A16   A(3,6,9)              119.8439         estimate D2E/DX2                !
 ! A17   A(7,6,9)              119.5393         estimate D2E/DX2                !
 ! A18   A(6,7,8)              121.6839         estimate D2E/DX2                !
 ! A19   A(7,8,28)             109.1434         estimate D2E/DX2                !
 ! A20   A(7,8,29)             109.8639         estimate D2E/DX2                !
 ! A21   A(7,8,30)             110.7546         estimate D2E/DX2                !
 ! A22   A(28,8,29)            108.8816         estimate D2E/DX2                !
 ! A23   A(28,8,30)            109.0108         estimate D2E/DX2                !
 ! A24   A(29,8,30)            109.1548         estimate D2E/DX2                !
 ! A25   A(6,9,10)             119.6969         estimate D2E/DX2                !
 ! A26   A(6,9,22)             121.1516         estimate D2E/DX2                !
 ! A27   A(10,9,22)            119.1322         estimate D2E/DX2                !
 ! A28   A(9,10,11)            120.6484         estimate D2E/DX2                !
 ! A29   A(9,10,23)            120.1406         estimate D2E/DX2                !
 ! A30   A(11,10,23)           119.1849         estimate D2E/DX2                !
 ! A31   A(10,11,12)           122.3446         estimate D2E/DX2                !
 ! A32   A(11,12,13)           110.6834         estimate D2E/DX2                !
 ! A33   A(11,12,31)           108.6914         estimate D2E/DX2                !
 ! A34   A(11,12,32)           109.5555         estimate D2E/DX2                !
 ! A35   A(13,12,31)           109.1531         estimate D2E/DX2                !
 ! A36   A(13,12,32)           111.3381         estimate D2E/DX2                !
 ! A37   A(31,12,32)           107.3227         estimate D2E/DX2                !
 ! A38   A(12,13,14)           112.5046         estimate D2E/DX2                !
 ! A39   A(12,13,22)           108.6544         estimate D2E/DX2                !
 ! A40   A(12,13,33)           108.363          estimate D2E/DX2                !
 ! A41   A(14,13,22)           111.0327         estimate D2E/DX2                !
 ! A42   A(14,13,33)           108.3848         estimate D2E/DX2                !
 ! A43   A(22,13,33)           107.7577         estimate D2E/DX2                !
 ! A44   A(13,14,15)           112.132          estimate D2E/DX2                !
 ! A45   A(13,14,34)           110.3968         estimate D2E/DX2                !
 ! A46   A(13,14,35)           109.3041         estimate D2E/DX2                !
 ! A47   A(15,14,34)           110.2156         estimate D2E/DX2                !
 ! A48   A(15,14,35)           108.211          estimate D2E/DX2                !
 ! A49   A(34,14,35)           106.3874         estimate D2E/DX2                !
 ! A50   A(14,15,16)           120.5014         estimate D2E/DX2                !
 ! A51   A(14,15,21)           120.1688         estimate D2E/DX2                !
 ! A52   A(16,15,21)           119.3195         estimate D2E/DX2                !
 ! A53   A(15,16,17)           120.2555         estimate D2E/DX2                !
 ! A54   A(15,16,36)           120.4436         estimate D2E/DX2                !
 ! A55   A(17,16,36)           119.3004         estimate D2E/DX2                !
 ! A56   A(16,17,18)           120.241          estimate D2E/DX2                !
 ! A57   A(16,17,37)           119.7083         estimate D2E/DX2                !
 ! A58   A(18,17,37)           120.0506         estimate D2E/DX2                !
 ! A59   A(17,18,19)           119.6244         estimate D2E/DX2                !
 ! A60   A(17,18,20)           119.7418         estimate D2E/DX2                !
 ! A61   A(19,18,20)           120.6338         estimate D2E/DX2                !
 ! A62   A(18,19,38)           121.4933         estimate D2E/DX2                !
 ! A63   A(18,20,21)           120.1376         estimate D2E/DX2                !
 ! A64   A(18,20,39)           120.2521         estimate D2E/DX2                !
 ! A65   A(21,20,39)           119.6103         estimate D2E/DX2                !
 ! A66   A(15,21,20)           120.3036         estimate D2E/DX2                !
 ! A67   A(15,21,40)           120.3448         estimate D2E/DX2                !
 ! A68   A(20,21,40)           119.3516         estimate D2E/DX2                !
 ! A69   A(9,22,13)            112.3294         estimate D2E/DX2                !
 ! A70   A(9,22,41)            108.2621         estimate D2E/DX2                !
 ! A71   A(9,22,42)            110.6334         estimate D2E/DX2                !
 ! A72   A(13,22,41)           108.468          estimate D2E/DX2                !
 ! A73   A(13,22,42)           109.486          estimate D2E/DX2                !
 ! A74   A(41,22,42)           107.5128         estimate D2E/DX2                !
 ! A75   A(2,23,10)            120.5738         estimate D2E/DX2                !
 ! A76   A(2,23,43)            119.7715         estimate D2E/DX2                !
 ! A77   A(10,23,43)           119.6437         estimate D2E/DX2                !
 ! D1    D(24,1,2,3)            -0.5067         estimate D2E/DX2                !
 ! D2    D(24,1,2,23)         -179.856          estimate D2E/DX2                !
 ! D3    D(1,2,3,4)             -1.87           estimate D2E/DX2                !
 ! D4    D(1,2,3,6)            178.2568         estimate D2E/DX2                !
 ! D5    D(23,2,3,4)           177.4668         estimate D2E/DX2                !
 ! D6    D(23,2,3,6)            -2.4064         estimate D2E/DX2                !
 ! D7    D(1,2,23,10)          178.8955         estimate D2E/DX2                !
 ! D8    D(1,2,23,43)            0.1048         estimate D2E/DX2                !
 ! D9    D(3,2,23,10)           -0.4583         estimate D2E/DX2                !
 ! D10   D(3,2,23,43)         -179.2489         estimate D2E/DX2                !
 ! D11   D(2,3,4,5)              0.0            estimate D2E/DX2                !
 ! D12   D(6,3,4,5)            179.8675         estimate D2E/DX2                !
 ! D13   D(2,3,6,7)           -175.4434         estimate D2E/DX2                !
 ! D14   D(2,3,6,9)              4.6629         estimate D2E/DX2                !
 ! D15   D(4,3,6,7)              4.6912         estimate D2E/DX2                !
 ! D16   D(4,3,6,9)           -175.2025         estimate D2E/DX2                !
 ! D17   D(3,4,5,25)            45.9916         estimate D2E/DX2                !
 ! D18   D(3,4,5,26)           -76.9815         estimate D2E/DX2                !
 ! D19   D(3,4,5,27)           164.7155         estimate D2E/DX2                !
 ! D20   D(3,6,7,8)              0.0001         estimate D2E/DX2                !
 ! D21   D(9,6,7,8)            179.894          estimate D2E/DX2                !
 ! D22   D(3,6,9,10)            -4.0864         estimate D2E/DX2                !
 ! D23   D(3,6,9,22)           177.5254         estimate D2E/DX2                !
 ! D24   D(7,6,9,10)           176.0188         estimate D2E/DX2                !
 ! D25   D(7,6,9,22)            -2.3694         estimate D2E/DX2                !
 ! D26   D(6,7,8,28)           177.9458         estimate D2E/DX2                !
 ! D27   D(6,7,8,29)           -62.7373         estimate D2E/DX2                !
 ! D28   D(6,7,8,30)            57.9265         estimate D2E/DX2                !
 ! D29   D(6,9,10,11)          179.3441         estimate D2E/DX2                !
 ! D30   D(6,9,10,23)            1.2181         estimate D2E/DX2                !
 ! D31   D(22,9,10,11)          -2.235          estimate D2E/DX2                !
 ! D32   D(22,9,10,23)         179.639          estimate D2E/DX2                !
 ! D33   D(6,9,22,13)         -156.5817         estimate D2E/DX2                !
 ! D34   D(6,9,22,41)           83.6726         estimate D2E/DX2                !
 ! D35   D(6,9,22,42)          -33.8986         estimate D2E/DX2                !
 ! D36   D(10,9,22,13)          25.0211         estimate D2E/DX2                !
 ! D37   D(10,9,22,41)         -94.7246         estimate D2E/DX2                !
 ! D38   D(10,9,22,42)         147.7042         estimate D2E/DX2                !
 ! D39   D(9,10,11,12)           8.56           estimate D2E/DX2                !
 ! D40   D(23,10,11,12)       -173.2963         estimate D2E/DX2                !
 ! D41   D(9,10,23,2)            1.0677         estimate D2E/DX2                !
 ! D42   D(9,10,23,43)         179.8599         estimate D2E/DX2                !
 ! D43   D(11,10,23,2)        -177.0856         estimate D2E/DX2                !
 ! D44   D(11,10,23,43)          1.7066         estimate D2E/DX2                !
 ! D45   D(10,11,12,13)        -36.4822         estimate D2E/DX2                !
 ! D46   D(10,11,12,31)         83.3823         estimate D2E/DX2                !
 ! D47   D(10,11,12,32)       -159.6335         estimate D2E/DX2                !
 ! D48   D(11,12,13,14)        -67.0818         estimate D2E/DX2                !
 ! D49   D(11,12,13,22)         56.2779         estimate D2E/DX2                !
 ! D50   D(11,12,13,33)        173.1008         estimate D2E/DX2                !
 ! D51   D(31,12,13,14)        173.3309         estimate D2E/DX2                !
 ! D52   D(31,12,13,22)        -63.3094         estimate D2E/DX2                !
 ! D53   D(31,12,13,33)         53.5136         estimate D2E/DX2                !
 ! D54   D(32,12,13,14)         55.0316         estimate D2E/DX2                !
 ! D55   D(32,12,13,22)        178.3912         estimate D2E/DX2                !
 ! D56   D(32,12,13,33)        -64.7858         estimate D2E/DX2                !
 ! D57   D(12,13,14,15)        -60.0002         estimate D2E/DX2                !
 ! D58   D(12,13,14,34)         63.3133         estimate D2E/DX2                !
 ! D59   D(12,13,14,35)       -179.9958         estimate D2E/DX2                !
 ! D60   D(22,13,14,15)        177.9776         estimate D2E/DX2                !
 ! D61   D(22,13,14,34)        -58.7088         estimate D2E/DX2                !
 ! D62   D(22,13,14,35)         57.982          estimate D2E/DX2                !
 ! D63   D(33,13,14,15)         59.8046         estimate D2E/DX2                !
 ! D64   D(33,13,14,34)       -176.8819         estimate D2E/DX2                !
 ! D65   D(33,13,14,35)        -60.191          estimate D2E/DX2                !
 ! D66   D(12,13,22,9)         -50.9633         estimate D2E/DX2                !
 ! D67   D(12,13,22,41)         68.6625         estimate D2E/DX2                !
 ! D68   D(12,13,22,42)       -174.2914         estimate D2E/DX2                !
 ! D69   D(14,13,22,9)          73.2745         estimate D2E/DX2                !
 ! D70   D(14,13,22,41)       -167.0997         estimate D2E/DX2                !
 ! D71   D(14,13,22,42)        -50.0536         estimate D2E/DX2                !
 ! D72   D(33,13,22,9)        -168.1734         estimate D2E/DX2                !
 ! D73   D(33,13,22,41)        -48.5476         estimate D2E/DX2                !
 ! D74   D(33,13,22,42)         68.4985         estimate D2E/DX2                !
 ! D75   D(13,14,15,16)        119.9998         estimate D2E/DX2                !
 ! D76   D(13,14,15,21)        -58.8221         estimate D2E/DX2                !
 ! D77   D(34,14,15,16)         -3.4156         estimate D2E/DX2                !
 ! D78   D(34,14,15,21)        177.7626         estimate D2E/DX2                !
 ! D79   D(35,14,15,16)       -119.3697         estimate D2E/DX2                !
 ! D80   D(35,14,15,21)         61.8084         estimate D2E/DX2                !
 ! D81   D(14,15,16,17)       -179.2078         estimate D2E/DX2                !
 ! D82   D(14,15,16,36)          0.529          estimate D2E/DX2                !
 ! D83   D(21,15,16,17)         -0.376          estimate D2E/DX2                !
 ! D84   D(21,15,16,36)        179.3608         estimate D2E/DX2                !
 ! D85   D(14,15,21,20)        179.1897         estimate D2E/DX2                !
 ! D86   D(14,15,21,40)         -0.7797         estimate D2E/DX2                !
 ! D87   D(16,15,21,20)          0.354          estimate D2E/DX2                !
 ! D88   D(16,15,21,40)       -179.6154         estimate D2E/DX2                !
 ! D89   D(15,16,17,18)          0.1807         estimate D2E/DX2                !
 ! D90   D(15,16,17,37)       -179.9382         estimate D2E/DX2                !
 ! D91   D(36,16,17,18)       -179.5591         estimate D2E/DX2                !
 ! D92   D(36,16,17,37)          0.3221         estimate D2E/DX2                !
 ! D93   D(16,17,18,19)        179.9945         estimate D2E/DX2                !
 ! D94   D(16,17,18,20)          0.0404         estimate D2E/DX2                !
 ! D95   D(37,17,18,19)          0.1138         estimate D2E/DX2                !
 ! D96   D(37,17,18,20)       -179.8403         estimate D2E/DX2                !
 ! D97   D(17,18,19,38)        179.9283         estimate D2E/DX2                !
 ! D98   D(20,18,19,38)         -0.118          estimate D2E/DX2                !
 ! D99   D(17,18,20,21)         -0.0626         estimate D2E/DX2                !
 ! D100  D(17,18,20,39)        179.8799         estimate D2E/DX2                !
 ! D101  D(19,18,20,21)        179.9838         estimate D2E/DX2                !
 ! D102  D(19,18,20,39)         -0.0737         estimate D2E/DX2                !
 ! D103  D(18,20,21,15)         -0.1363         estimate D2E/DX2                !
 ! D104  D(18,20,21,40)        179.8334         estimate D2E/DX2                !
 ! D105  D(39,20,21,15)        179.9208         estimate D2E/DX2                !
 ! D106  D(39,20,21,40)         -0.1096         estimate D2E/DX2                !
 --------------------------------------------------------------------------------
 Trust Radius=3.00D-01 FncErr=1.00D-07 GrdErr=1.00D-06 EigMax=2.50D+02 EigMin=1.00D-04
 Number of steps in this run=    238 maximum allowed number of steps=    258.
 GradGradGradGradGradGradGradGradGradGradGradGradGradGradGradGradGradGrad

                          Input orientation:                          
 ---------------------------------------------------------------------
 Center     Atomic      Atomic             Coordinates (Angstroms)
 Number     Number       Type             X           Y           Z
 ---------------------------------------------------------------------
      1          8           0       -4.061500   -2.997000    0.887800
      2          6           0       -3.194300   -1.910200    0.767700
      3          6           0       -3.577500   -0.747600    0.071500
      4          8           0       -4.849400   -0.740500   -0.530700
      5          6           0       -5.794960   -1.806480   -0.503190
      6          6           0       -2.677700    0.347400    0.006300
      7          8           0       -3.061400    1.548200   -0.593500
      8          6           0       -4.355280    1.721390   -1.157460
      9          6           0       -1.380100    0.224200    0.550300
     10          6           0       -1.017800   -0.954100    1.229800
     11          8           0        0.267800   -1.103000    1.765100
     12          6           0        1.203800   -0.028000    1.812500
     13          6           0        1.079300    0.857300    0.558600
     14          6           0        1.514500    0.121900   -0.731100
     15          6           0        2.951200   -0.332150   -0.668920
     16          6           0        3.273530   -1.694950   -0.777670
     17          6           0        4.605840   -2.111820   -0.702780
     18          6           0        5.627550   -1.175170   -0.515200
     19          8           0        6.950410   -1.604680   -0.442340
     20          6           0        5.311280    0.184970   -0.401460
     21          6           0        3.979850    0.604680   -0.476450
     22          6           0       -0.377200    1.354300    0.448000
     23          6           0       -1.926500   -2.003800    1.343000
     24          1           0       -4.993200   -2.994100    0.491900
     25          1           0       -5.890790   -2.216450    0.523300
     26          1           0       -5.503200   -2.601210   -1.218040
     27          1           0       -6.783350   -1.414710   -0.813300
     28          1           0       -4.449160    2.758360   -1.541200
     29          1           0       -4.497720    1.011950   -2.000230
     30          1           0       -5.142970    1.545050   -0.395980
     31          1           0        0.995200    0.586300    2.714700
     32          1           0        2.230800   -0.434200    1.919600
     33          1           0        1.732500    1.747900    0.692100
     34          1           0        0.846320   -0.743960   -0.927410
     35          1           0        1.403880    0.806610   -1.599630
     36          1           0        2.494030   -2.433810   -0.915960
     37          1           0        4.844220   -3.163850   -0.788670
     38          1           0        7.713080   -0.950330   -0.308050
     39          1           0        6.095480    0.916920   -0.254150
     40          1           0        3.749550    1.658970   -0.384190
     41          1           0       -0.569800    2.066700    1.277900
     42          1           0       -0.508200    1.909000   -0.506100
     43          1           0       -1.638300   -2.908200    1.865900
 ---------------------------------------------------------------------
                    Distance matrix (angstroms):
                    1          2          3          4          5
     1  O    0.000000
     2  C    1.395562   0.000000
     3  C    2.441393   1.408253   0.000000
     4  O    2.779338   2.406948   1.407276   0.000000
     5  C    2.521324   2.896438   2.523613   1.425186   0.000000
     6  C    3.725179   2.437901   1.418773   2.487605   3.823099
     7  O    4.883983   3.719013   2.445257   2.905002   4.328323
     8  C    5.150980   4.271131   2.865518   2.588027   3.866085
     9  C    4.204752   2.809670   2.449941   3.759687   4.972373
    10  C    3.681646   2.421738   2.817156   4.222102   5.152772
    11  O    4.806218   3.692224   4.216743   5.620306   6.511304
    12  C    6.115016   4.896689   5.139040   6.529891   7.583406
    13  C    6.433648   5.095727   4.949622   6.236106   7.448394
    14  C    6.590914   5.343092   5.227682   6.425194   7.562989
    15  C    7.661773   6.505481   6.583673   7.812504   8.871101
    16  C    7.633596   6.653370   6.968154   8.182540   9.073328
    17  C    8.856425   7.940097   8.332326   9.555715  10.407195
    18  C    9.958171   8.944895   9.233633  10.485974  11.439949
    19  O   11.178998  10.221188  10.575231  11.831743  12.747113
    20  C    9.981790   8.837509   8.950072  10.203559  11.283829
    21  C    8.916086   7.703308   7.696912   8.931299  10.067836
    22  C    5.718505   4.323797   3.847292   5.034542   6.344085
    23  C    2.398307   1.395367   2.433218   3.694594   4.290960
    24  H    1.012329   2.118241   2.688439   2.478932   1.744553
    25  H    2.021984   2.724808   2.777221   2.091372   1.109478
    26  H    2.582578   3.122768   2.967677   2.088572   1.108030
    27  H    3.578526   3.953018   3.391958   2.067507   1.107505
    28  H    6.258953   5.357345   3.956305   3.663785   4.870976
    29  H    4.960109   4.230757   2.869649   2.313931   3.444925
    30  H    4.842302   4.134032   2.815223   2.308262   3.416041
    31  H    6.461255   5.251212   5.447511   6.815597   7.885841
    32  H    6.872088   5.739090   6.103281   7.498468   8.495051
    33  H    7.491516   6.136837   5.899895   7.142043   8.409815
    34  H    5.697181   4.534327   4.535198   5.709520   6.739103
    35  H    7.108104   5.841966   5.479269   6.529906   7.736518
    36  H    6.822441   5.955332   6.378233   7.545972   8.322937
    37  H    9.063677   8.283220   8.803609   9.995271  10.729217
    38  H   12.010814  11.002251  11.298777  12.566205  13.536551
    39  H   10.944728   9.764056   9.820551  11.073117  12.200881
    40  H    9.181967   7.891950   7.725600   8.928654  10.154860
    41  H    6.163214   4.792081   4.292079   5.428295   6.743597
    42  H    6.215926   4.839833   4.100213   5.085909   6.461782
    43  H    2.614663   2.150159   3.412999   4.555631   4.909603
                    6          7          8          9         10
     6  C    0.000000
     7  O    1.396032   0.000000
     8  C    2.460988   1.422031   0.000000
     9  C    1.412402   2.426525   3.742956   0.000000
    10  C    2.438467   3.709748   4.898574   1.407612   0.000000
    11  O    3.724649   4.865740   6.155599   2.439831   1.400530
    12  C    4.297595   5.144431   6.540978   2.886744   2.476430
    13  C    3.831460   4.353168   5.764215   2.539593   2.851229
    14  C    4.262529   4.795011   6.098727   3.167201   3.378675
    15  C    5.709836   6.300219   7.605284   4.533893   4.443526
    16  C    6.340579   7.119219   8.367458   5.206046   4.795238
    17  C    7.720137   8.496720   9.757146   6.546654   6.058094
    18  C    8.459749   9.106082  10.414387   7.225004   6.874196
    19  O    9.834246  10.497611  11.806471   8.586474   8.167722
    20  C    8.001028   8.485107   9.817052   6.758843   6.634436
    21  C    6.679986   7.105148   8.437133   5.470653   5.506141
    22  C    2.549754   2.885697   4.305505   1.514397   2.519978
    23  C    2.806993   4.201754   5.101795   2.427120   1.392990
    24  H    4.094261   5.053952   5.036187   4.838942   4.528786
    25  H    4.143014   4.839967   4.548552   5.128726   5.083178
    26  H    4.263421   4.854899   4.472836   5.301879   5.368771
    27  H    4.542371   4.762359   3.981092   5.808661   6.134165
    28  H    3.368316   2.070869   1.109674   4.496162   5.764983
    29  H    2.789312   2.080737   1.110791   4.104304   5.138900
    30  H    2.770154   2.090923   1.109686   4.098693   5.089788
    31  H    4.569759   5.322165   6.701469   3.233851   2.937674
    32  H    5.325879   6.184898   7.582303   3.917534   3.361476
    33  H    4.677776   4.967306   6.362597   3.468436   3.892824
    34  H    3.805469   4.542661   5.760861   2.842166   2.858786
    35  H    4.410122   4.636915   5.848099   3.565381   4.119503
    36  H    5.944113   6.842747   8.014802   4.921770   4.373417
    37  H    8.339073   9.205451  10.422686   7.212065   6.581831
    38  H   10.476222  11.064066  12.389709   9.208811   8.865284
    39  H    8.795503   9.184886  10.520529   7.550583   7.503438
    40  H    6.571320   6.815066   8.141874   5.407878   5.671043
    41  H    3.002699   3.158964   4.514430   2.140279   3.054218
    42  H    2.721742   2.580048   3.906340   2.171346   3.386795
    43  H    3.890681   5.285202   6.160827   3.407257   2.146660
                   11         12         13         14         15
    11  O    0.000000
    12  C    1.426172   0.000000
    13  C    2.440686   1.539975   0.000000
    14  C    3.047237   2.566886   1.547106   0.000000
    15  C    3.703957   3.050141   2.534878   1.508023   0.000000
    16  C    3.981268   3.710995   3.621359   2.529288   1.404616
    17  C    5.091831   4.716229   4.779460   3.814012   2.430269
    18  C    5.825109   5.128718   5.096132   4.318123   2.810189
    19  O    7.055618   6.371322   6.444622   5.710830   4.202898
    20  C    5.638221   4.671013   4.391287   3.811585   2.430828
    21  C    4.660476   3.653222   3.090038   2.525049   1.404570
    22  C    2.861660   2.504431   1.542930   2.547080   3.894852
    23  C    2.409266   3.731353   4.223270   4.545434   5.534816
    24  H    5.733709   6.996038   7.191174   7.318152   8.458544
    25  H    6.380444   7.535553   7.617830   7.866366   9.118814
    26  H    6.666948   7.796758   7.645067   7.543245   8.770806
    27  H    7.514255   8.521288   8.298518   8.439327   9.795624
    28  H    6.934799   7.139122   6.211848   6.570573   8.067060
    29  H    6.431244   6.937272   6.137970   6.208838   7.685402
    30  H    6.399912   6.901693   6.332525   6.816126   8.313481
    31  H    2.069924   1.111235   2.174691   3.515520   4.014769
    32  H    2.079551   1.109594   2.201419   2.801525   2.688834
    33  H    3.379986   2.165327   1.112502   2.171842   2.768432
    34  H    2.777266   2.854382   2.196939   1.111178   2.160307
    35  H    4.032207   3.518414   2.183089   1.111490   2.134759
    36  H    3.730313   3.859677   3.873912   2.743229   2.164950
    37  H    5.631382   5.463726   5.670926   4.678301   3.408283
    38  H    7.730036   6.907833   6.930054   6.304843   4.815379
    39  H    6.489938   5.393742   5.081946   4.673854   3.408622
    40  H    4.936650   3.761935   2.943087   2.734663   2.164022
    41  H    3.314504   2.796287   2.167850   3.487497   4.684232
    42  H    3.851320   3.472581   2.181700   2.708444   4.125132
    43  H    2.627190   4.046719   4.824248   5.085869   5.841648
                   16         17         18         19         20
    16  C    0.000000
    17  C    1.398013   0.000000
    18  C    2.424968   1.398710   0.000000
    19  O    3.693243   2.412888   1.392748   0.000000
    20  C    2.797867   2.421504   1.401051   2.427193   0.000000
    21  C    2.424442   2.796866   2.425754   3.702251   1.398029
    22  C    4.912028   6.178104   6.586577   7.952492   5.869218
    23  C    5.624317   6.846046   7.823248   9.063458   7.760110
    24  H    8.463948   9.713251  10.822342  12.060394  10.820669
    25  H    9.270882  10.568513  11.611843  12.891980  11.493841
    26  H    8.834377  10.133987  11.243717  12.517475  11.197436
    27  H   10.060847  11.411040  12.416790  13.740082  12.206910
    28  H    8.947340  10.315747  10.865791  12.255358  10.158126
    29  H    8.319512   9.711649  10.464698  11.846242   9.972785
    30  H    9.026669  10.416627  11.109361  12.496911  10.542352
    31  H    4.753056   5.656478   5.915547   7.087441   5.338545
    32  H    3.154686   3.915623   4.244431   5.405877   3.906411
    33  H    4.048236   5.009911   5.017303   6.305024   4.055403
    34  H    2.611159   4.006930   4.818300   6.183530   4.590795
    35  H    3.229398   4.424265   4.789867   6.157730   4.133984
    36  H    1.082894   2.146827   3.400549   4.557532   3.880672
    37  H    2.150548   1.082113   2.154818   2.643292   3.403332
    38  H    4.525992   3.340630   2.107819   1.013841   2.658247
    39  H    3.880637   3.404932   2.159617   2.669230   1.082784
    40  H    3.410308   3.879896   3.402410   4.571684   2.147551
    41  H    5.757305   6.940488   7.220255   8.543525   6.399083
    42  H    5.231031   6.508385   6.867286   8.245052   6.070385
    43  H    5.708460   6.798649   7.840000   8.988497   7.937587
                   21         22         23         24         25
    21  C    0.000000
    22  C    4.516683   0.000000
    23  C    6.708169   3.805022   0.000000
    24  H    9.716200   6.341764   3.333124   0.000000
    25  H   10.314447   6.569292   4.053730   1.188021   0.000000
    26  H   10.037725   6.685628   4.439438   1.827117   1.824974
    27  H   10.956180   7.092041   5.346555   2.720782   1.796093
    28  H    8.764716   4.744382   6.112331   6.125379   5.575768
    29  H    8.623049   4.805176   5.184892   4.743907   4.327980
    30  H    9.171511   4.843682   5.095495   4.627596   3.943754
    31  H    4.369429   2.758847   4.138419   7.322639   7.750774
    32  H    3.143168   3.487980   4.480988   7.795998   8.431269
    33  H    2.779036   2.159940   5.280834   8.231749   8.594133
    34  H    3.441105   2.791317   3.798748   6.416975   7.047087
    35  H    2.817433   2.768573   5.258223   7.729329   8.176670
    36  H    3.410755   4.945111   4.982860   7.639019   8.510225
    37  H    3.878973   7.014717   7.192523   9.921870  10.856301
    38  H    4.047644   8.446038   9.836527  12.894436  13.687932
    39  H    2.150070   6.525328   8.685255  11.781829  12.413424
    40  H    1.083087   4.220833   6.972561   9.942549  10.429697
    41  H    5.090635   1.110560   4.291135   6.767271   6.872243
    42  H    4.673834   1.111377   4.554201   6.719495   6.859393
    43  H    7.027840   4.665803   1.083708   3.626377   4.512734
                   26         27         28         29         30
    26  H    0.000000
    27  H    1.791754   0.000000
    28  H    5.471784   4.836610   0.000000
    29  H    3.831153   3.538585   1.806382   0.000000
    30  H    4.242290   3.409572   1.806937   1.809464   0.000000
    31  H    8.237467   8.772495   7.243727   7.251477   6.947853
    32  H    8.622962   9.470219   8.172603   7.920189   7.978209
    33  H    8.655562   9.208042   6.649931   6.826852   6.963990
    34  H    6.621952   7.659947   6.378487   5.726511   6.433784
    35  H    7.711459   8.519584   6.170156   5.918744   6.697411
    36  H    8.004684   9.333750   8.692378   7.869782   8.627020
    37  H   10.371597  11.758422  11.045623  10.304224  11.048616
    38  H   13.350039  14.512664  12.774785  12.482694  13.096285
    39  H   12.158771  13.100130  10.781319  10.736560  11.256883
    40  H   10.220461  10.980602   8.352615   8.428979   8.893257
    41  H    7.235851   7.423041   4.845116   5.223714   4.897742
    42  H    6.767487   7.107667   4.162212   4.353549   4.650342
    43  H    4.954027   5.990005   7.184648   6.204097   6.101659
                   31         32         33         34         35
    31  H    0.000000
    32  H    1.788941   0.000000
    33  H    2.446188   2.552767   0.000000
    34  H    3.880299   3.180912   3.101208   0.000000
    35  H    4.339239   3.822092   2.499209   1.779612   0.000000
    36  H    4.954720   3.479674   4.544500   2.360227   3.486568
    37  H    6.414997   4.649267   6.000064   4.675288   5.315839
    38  H    7.525169   5.940051   6.636873   6.897723   6.675404
    39  H    5.910688   4.635350   4.541091   5.546664   4.881966
    40  H    4.282544   3.463439   2.287968   3.807611   2.775965
    41  H    2.589441   3.809152   2.396952   3.842993   3.709908
    42  H    3.792532   4.344736   2.546050   3.008392   2.463153
    43  H    4.457277   4.592765   5.866802   4.319705   5.921534
                   36         37         38         39         40
    36  H    0.000000
    37  H    2.464255   0.000000
    38  H    5.459739   3.655273   0.000000
    39  H    4.963449   4.301633   2.471064   0.000000
    40  H    4.313926   4.962006   4.745926   2.463927   0.000000
    41  H    5.869810   7.806470   8.956774   6.935065   4.646027
    42  H    5.295410   7.379841   8.706574   6.682536   4.266827
    43  H    5.003993   7.009648   9.798348   8.884678   7.412886
                   41         42         43
    41  H    0.000000
    42  H    1.792016   0.000000
    43  H    5.122213   5.487160   0.000000
 Stoichiometry    C18H20O5
 Framework group  C1[X(C18H20O5)]
 Deg. of freedom   123
 Full point group                 C1      NOp   1
 Largest Abelian subgroup         C1      NOp   1
 Largest concise Abelian subgroup C1      NOp   1
                         Standard orientation:                         
 ---------------------------------------------------------------------
 Center     Atomic      Atomic             Coordinates (Angstroms)
 Number     Number       Type             X           Y           Z
 ---------------------------------------------------------------------
      1          8           0       -3.982346   -2.592870    0.080412
      2          6           0       -3.119495   -1.508979    0.248525
      3          6           0       -3.488134   -0.214833   -0.166769
      4          8           0       -4.739770   -0.065183   -0.792418
      5          6           0       -5.678072   -1.106976   -1.048176
      6          6           0       -2.594547    0.864073    0.057687
      7          8           0       -2.967097    2.172638   -0.254995
      8          6           0       -4.243134    2.474714   -0.805131
      9          6           0       -1.314499    0.615279    0.600328
     10          6           0       -0.966093   -0.690176    0.995008
     11          8           0        0.302429   -0.961889    1.522748
     12          6           0        1.228672    0.071032    1.853073
     13          6           0        1.138733    1.226854    0.839411
     14          6           0        1.620947    0.815606   -0.571930
     15          6           0        3.058073    0.358658   -0.570545
     16          6           0        3.393517   -0.940415   -0.986277
     17          6           0        4.725631   -1.364148   -0.967274
     18          6           0        5.733963   -0.498763   -0.530505
     19          8           0        7.056789   -0.934296   -0.516764
     20          6           0        5.404432    0.796545   -0.110350
     21          6           0        4.073180    1.223061   -0.128753
     22          6           0       -0.316913    1.736962    0.800448
     23          6           0       -1.870462   -1.736356    0.827544
     24          1           0       -4.900659   -2.496136   -0.334504
     25          1           0       -5.804337   -1.747120   -0.150839
     26          1           0       -5.357511   -1.711180   -1.919903
     27          1           0       -6.658619   -0.652479   -1.290100
     28          1           0       -4.331888    3.572961   -0.936860
     29          1           0       -4.352978    1.983840   -1.795501
     30          1           0       -5.053919    2.124541   -0.133259
     31          1           0        0.986416    0.455696    2.867069
     32          1           0        2.254521   -0.349700    1.895699
     33          1           0        1.780850    2.060486    1.200527
     34          1           0        0.965726    0.020823   -0.988729
     35          1           0        1.533768    1.685702   -1.258036
     36          1           0        2.624240   -1.625358   -1.320531
     37          1           0        4.974203   -2.366519   -1.290434
     38          1           0        7.809980   -0.330532   -0.206852
     39          1           0        6.178162    1.472644    0.231195
     40          1           0        3.832460    2.226123    0.201396
     41          1           0       -0.541525    2.233984    1.767847
     42          1           0       -0.420744    2.500876   -0.000062
     43          1           0       -1.592976   -2.738680    1.132130
 ---------------------------------------------------------------------
 Rotational constants (GHZ):           0.6247684           0.1079134           0.1001996
 Standard basis: 6-31G(d) (6D, 7F)
 There are   385 symmetry adapted cartesian basis functions of A   symmetry.
 There are   385 symmetry adapted basis functions of A   symmetry.
   385 basis functions,   724 primitive gaussians,   385 cartesian basis functions
    84 alpha electrons       84 beta electrons
       nuclear repulsion energy      1899.7707152377 Hartrees.
 NAtoms=   43 NActive=   43 NUniq=   43 SFac= 1.00D+00 NAtFMM=   60 NAOKFM=F Big=F
 Integral buffers will be    131072 words long.
 Raffenetti 2 integral format.
 Two-electron integral symmetry is turned on.
 One-electron integrals computed using PRISM.
 NBasis=   385 RedAO= T EigKep=  3.15D-04  NBF=   385
 NBsUse=   385 1.00D-06 EigRej= -1.00D+00 NBFU=   385
 ExpMin= 1.61D-01 ExpMax= 5.48D+03 ExpMxC= 8.25D+02 IAcc=3 IRadAn=         5 AccDes= 0.00D+00
 Harris functional with IExCor=  402 and IRadAn=       5 diagonalized for initial guess.
 HarFok:  IExCor=  402 AccDes= 0.00D+00 IRadAn=         5 IDoV= 1 UseB2=F ITyADJ=14
 ICtDFT=  3500011 ScaDFX=  1.000000  1.000000  1.000000  1.000000
 FoFCou: FMM=F IPFlag=           0 FMFlag=      100000 FMFlg1=           0
         NFxFlg=           0 DoJE=T BraDBF=F KetDBF=T FulRan=T
         wScrn=  0.000000 ICntrl=       500 IOpCl=  0 I1Cent=   200000004 NGrid=           0
         NMat0=    1 NMatS0=      1 NMatT0=    0 NMatD0=    1 NMtDS0=    0 NMtDT0=    0
 Petite list used in FoFCou.
 Requested convergence on RMS density matrix=1.00D-08 within 128 cycles.
 Requested convergence on MAX density matrix=1.00D-06.
 Requested convergence on             energy=1.00D-06.
 No special actions if energy rises.
 Integral accuracy reduced to 1.0D-05 until final iterations.
 Initial convergence to 1.0D-05 achieved.  Increase integral accuracy.
 SCF Done:  E(RB3LYP) =  -1073.95741406     A.U. after   14 cycles
            NFock= 14  Conv=0.41D-08     -V/T= 2.0098

 **********************************************************************

            Population analysis using the SCF density.

 **********************************************************************

 Orbital symmetries:
       Occupied  (A) (A) (A) (A) (A) (A) (A) (A) (A) (A) (A) (A)
                 (A) (A) (A) (A) (A) (A) (A) (A) (A) (A) (A) (A)
                 (A) (A) (A) (A) (A) (A) (A) (A) (A) (A) (A) (A)
                 (A) (A) (A) (A) (A) (A) (A) (A) (A) (A) (A) (A)
                 (A) (A) (A) (A) (A) (A) (A) (A) (A) (A) (A) (A)
                 (A) (A) (A) (A) (A) (A) (A) (A) (A) (A) (A) (A)
                 (A) (A) (A) (A) (A) (A) (A) (A) (A) (A) (A) (A)
       Virtual   (A) (A) (A) (A) (A) (A) (A) (A) (A) (A) (A) (A)
                 (A) (A) (A) (A) (A) (A) (A) (A) (A) (A) (A) (A)
                 (A) (A) (A) (A) (A) (A) (A) (A) (A) (A) (A) (A)
                 (A) (A) (A) (A) (A) (A) (A) (A) (A) (A) (A) (A)
                 (A) (A) (A) (A) (A) (A) (A) (A) (A) (A) (A) (A)
                 (A) (A) (A) (A) (A) (A) (A) (A) (A) (A) (A) (A)
                 (A) (A) (A) (A) (A) (A) (A) (A) (A) (A) (A) (A)
                 (A) (A) (A) (A) (A) (A) (A) (A) (A) (A) (A) (A)
                 (A) (A) (A) (A) (A) (A) (A) (A) (A) (A) (A) (A)
                 (A) (A) (A) (A) (A) (A) (A) (A) (A) (A) (A) (A)
                 (A) (A) (A) (A) (A) (A) (A) (A) (A) (A) (A) (A)
                 (A) (A) (A) (A) (A) (A) (A) (A) (A) (A) (A) (A)
                 (A) (A) (A) (A) (A) (A) (A) (A) (A) (A) (A) (A)
                 (A) (A) (A) (A) (A) (A) (A) (A) (A) (A) (A) (A)
                 (A) (A) (A) (A) (A) (A) (A) (A) (A) (A) (A) (A)
                 (A) (A) (A) (A) (A) (A) (A) (A) (A) (A) (A) (A)
                 (A) (A) (A) (A) (A) (A) (A) (A) (A) (A) (A) (A)
                 (A) (A) (A) (A) (A) (A) (A) (A) (A) (A) (A) (A)
                 (A) (A) (A) (A) (A) (A) (A) (A) (A) (A) (A) (A)
                 (A) (A) (A) (A) (A) (A) (A) (A) (A) (A) (A) (A)
                 (A) (A) (A) (A) (A) (A) (A) (A) (A) (A) (A) (A)
                 (A) (A) (A) (A) (A) (A) (A) (A) (A) (A) (A) (A)
                 (A) (A) (A) (A) (A) (A) (A) (A) (A) (A) (A) (A)
                 (A) (A) (A) (A) (A) (A) (A) (A) (A) (A) (A) (A)
                 (A) (A) (A) (A) (A) (A) (A) (A) (A) (A) (A) (A)
                 (A)
 The electronic state is 1-A.
 Alpha  occ. eigenvalues --  -19.17591 -19.16849 -19.16591 -19.15862 -19.15345
 Alpha  occ. eigenvalues --  -10.27115 -10.24992 -10.24671 -10.24577 -10.24035
 Alpha  occ. eigenvalues --  -10.23874 -10.23278 -10.22925 -10.19176 -10.18562
 Alpha  occ. eigenvalues --  -10.18460 -10.18383 -10.18368 -10.18301 -10.18234
 Alpha  occ. eigenvalues --  -10.18116 -10.18105 -10.16988  -1.06360  -1.03936
 Alpha  occ. eigenvalues --   -1.03683  -1.02743  -1.01739  -0.84727  -0.84281
 Alpha  occ. eigenvalues --   -0.80683  -0.77047  -0.75414  -0.74099  -0.73432
 Alpha  occ. eigenvalues --   -0.71452  -0.67982  -0.67249  -0.64836  -0.62797
 Alpha  occ. eigenvalues --   -0.61170  -0.59079  -0.58811  -0.56699  -0.53928
 Alpha  occ. eigenvalues --   -0.53093  -0.51640  -0.50399  -0.49144  -0.48484
 Alpha  occ. eigenvalues --   -0.47552  -0.46813  -0.46287  -0.45272  -0.44947
 Alpha  occ. eigenvalues --   -0.44626  -0.43757  -0.43236  -0.42093  -0.41770
 Alpha  occ. eigenvalues --   -0.40800  -0.40243  -0.39760  -0.39044  -0.37950
 Alpha  occ. eigenvalues --   -0.37539  -0.36974  -0.35893  -0.35089  -0.34811
 Alpha  occ. eigenvalues --   -0.34113  -0.33164  -0.32876  -0.32351  -0.32056
 Alpha  occ. eigenvalues --   -0.31924  -0.30863  -0.29288  -0.28642  -0.25239
 Alpha  occ. eigenvalues --   -0.24567  -0.20988  -0.20108  -0.18526
 Alpha virt. eigenvalues --    0.00097   0.01780   0.01987   0.02710   0.05426
 Alpha virt. eigenvalues --    0.06152   0.07640   0.08749   0.10493   0.10584
 Alpha virt. eigenvalues --    0.12038   0.12871   0.13239   0.13830   0.13928
 Alpha virt. eigenvalues --    0.14404   0.15148   0.15636   0.16048   0.16353
 Alpha virt. eigenvalues --    0.16671   0.17072   0.17545   0.17973   0.18198
 Alpha virt. eigenvalues --    0.19815   0.20389   0.20473   0.22014   0.22312
 Alpha virt. eigenvalues --    0.23437   0.24089   0.24686   0.24919   0.26127
 Alpha virt. eigenvalues --    0.27381   0.28858   0.29988   0.31050   0.32292
 Alpha virt. eigenvalues --    0.33583   0.34647   0.35297   0.36908   0.37403
 Alpha virt. eigenvalues --    0.40738   0.41642   0.47611   0.48741   0.49060
 Alpha virt. eigenvalues --    0.50565   0.51103   0.51409   0.52078   0.52844
 Alpha virt. eigenvalues --    0.53236   0.53927   0.54384   0.54609   0.55296
 Alpha virt. eigenvalues --    0.55902   0.56221   0.57111   0.57506   0.58479
 Alpha virt. eigenvalues --    0.59009   0.59433   0.59847   0.60742   0.61001
 Alpha virt. eigenvalues --    0.61269   0.62243   0.63313   0.63551   0.63945
 Alpha virt. eigenvalues --    0.64324   0.65013   0.65726   0.66552   0.67608
 Alpha virt. eigenvalues --    0.68100   0.68820   0.70690   0.72421   0.73089
 Alpha virt. eigenvalues --    0.74350   0.75696   0.76641   0.76879   0.77452
 Alpha virt. eigenvalues --    0.79664   0.80858   0.81535   0.81777   0.82902
 Alpha virt. eigenvalues --    0.83580   0.83873   0.84358   0.85144   0.85153
 Alpha virt. eigenvalues --    0.86383   0.86849   0.87453   0.87690   0.88139
 Alpha virt. eigenvalues --    0.88953   0.89141   0.90153   0.90986   0.91711
 Alpha virt. eigenvalues --    0.92703   0.93211   0.94010   0.94694   0.95401
 Alpha virt. eigenvalues --    0.96696   0.96964   0.97687   0.97947   0.98863
 Alpha virt. eigenvalues --    0.99678   1.00158   1.01262   1.01859   1.02936
 Alpha virt. eigenvalues --    1.05597   1.06167   1.07352   1.08837   1.10335
 Alpha virt. eigenvalues --    1.13319   1.14507   1.14923   1.16306   1.16951
 Alpha virt. eigenvalues --    1.18545   1.19318   1.19703   1.21000   1.22760
 Alpha virt. eigenvalues --    1.25442   1.26736   1.27357   1.28549   1.30283
 Alpha virt. eigenvalues --    1.31303   1.33668   1.35190   1.37572   1.37737
 Alpha virt. eigenvalues --    1.38109   1.38928   1.39385   1.41387   1.42931
 Alpha virt. eigenvalues --    1.44272   1.45044   1.46170   1.46691   1.47319
 Alpha virt. eigenvalues --    1.48413   1.50705   1.51628   1.52073   1.52779
 Alpha virt. eigenvalues --    1.53905   1.56006   1.61510   1.63255   1.65382
 Alpha virt. eigenvalues --    1.67962   1.68512   1.69854   1.72392   1.73353
 Alpha virt. eigenvalues --    1.75467   1.76223   1.76840   1.77466   1.78050
 Alpha virt. eigenvalues --    1.79388   1.80415   1.80916   1.81917   1.83150
 Alpha virt. eigenvalues --    1.83393   1.84653   1.84817   1.85855   1.86957
 Alpha virt. eigenvalues --    1.88925   1.90436   1.90919   1.91264   1.92460
 Alpha virt. eigenvalues --    1.92633   1.94755   1.95780   1.96504   1.97023
 Alpha virt. eigenvalues --    1.98298   1.98434   1.99413   2.00490   2.01466
 Alpha virt. eigenvalues --    2.02462   2.04294   2.06031   2.06394   2.07079
 Alpha virt. eigenvalues --    2.08791   2.10433   2.11203   2.11960   2.12490
 Alpha virt. eigenvalues --    2.13164   2.14500   2.15364   2.15750   2.17531
 Alpha virt. eigenvalues --    2.21054   2.22640   2.23517   2.24962   2.25638
 Alpha virt. eigenvalues --    2.26761   2.27860   2.29687   2.31188   2.31556
 Alpha virt. eigenvalues --    2.32627   2.33331   2.34552   2.36919   2.37271
 Alpha virt. eigenvalues --    2.37661   2.38201   2.39699   2.39730   2.41187
 Alpha virt. eigenvalues --    2.43796   2.46630   2.47399   2.48226   2.50081
 Alpha virt. eigenvalues --    2.50504   2.53553   2.55823   2.57675   2.61147
 Alpha virt. eigenvalues --    2.62524   2.64690   2.65007   2.66379   2.66759
 Alpha virt. eigenvalues --    2.69837   2.70393   2.71325   2.73411   2.74692
 Alpha virt. eigenvalues --    2.78439   2.79943   2.81214   2.81990   2.83241
 Alpha virt. eigenvalues --    2.86294   2.89955   2.91299   2.97054   2.98098
 Alpha virt. eigenvalues --    3.01769   3.05285   3.09852   3.10207   3.13078
 Alpha virt. eigenvalues --    3.33241   3.41384   3.45135   3.94011   3.97978
 Alpha virt. eigenvalues --    4.05313   4.10825   4.11615   4.12669   4.13805
 Alpha virt. eigenvalues --    4.18798   4.20343   4.23328   4.24205   4.31009
 Alpha virt. eigenvalues --    4.33862   4.36113   4.42623   4.44769   4.47986
 Alpha virt. eigenvalues --    4.54193   4.56564   4.59689   4.69978   4.75983
 Alpha virt. eigenvalues --    5.04236
          Condensed to atoms (all electrons):
               1          2          3          4          5          6
     1  O    8.378056   0.245473  -0.040746  -0.006917  -0.040848   0.003949
     2  C    0.245473   4.705036   0.371548  -0.050369  -0.008519   0.001088
     3  C   -0.040746   0.371548   5.036036   0.212742  -0.028291   0.354223
     4  O   -0.006917  -0.050369   0.212742   8.321477   0.242502  -0.051220
     5  C   -0.040848  -0.008519  -0.028291   0.242502   5.004399   0.003829
     6  C    0.003949   0.001088   0.354223  -0.051220   0.003829   4.806303
     7  O   -0.000007   0.004384  -0.055649  -0.001032  -0.000181   0.269219
     8  C   -0.000005   0.000143  -0.011480  -0.018923   0.000925  -0.027530
     9  C    0.000207  -0.044391  -0.039834   0.002118   0.000052   0.460915
    10  C    0.002739   0.022537  -0.057668  -0.000021  -0.000058   0.033337
    11  O   -0.000005   0.003021  -0.000063   0.000000  -0.000000   0.005039
    12  C    0.000000  -0.000085  -0.000005  -0.000000  -0.000000   0.000287
    13  C    0.000000   0.000010  -0.000112   0.000000  -0.000000   0.003997
    14  C   -0.000000   0.000001   0.000010  -0.000000  -0.000000  -0.000223
    15  C   -0.000000  -0.000000  -0.000000   0.000000   0.000000   0.000000
    16  C    0.000000   0.000000   0.000000  -0.000000  -0.000000   0.000000
    17  C   -0.000000   0.000000   0.000000  -0.000000  -0.000000   0.000000
    18  C   -0.000000   0.000000  -0.000000   0.000000   0.000000   0.000000
    19  O    0.000000  -0.000000   0.000000   0.000000   0.000000  -0.000000
    20  C    0.000000   0.000000  -0.000000  -0.000000   0.000000   0.000000
    21  C   -0.000000  -0.000000   0.000000  -0.000000   0.000000  -0.000000
    22  C    0.000000  -0.000723   0.009789  -0.000026   0.000002  -0.062617
    23  C   -0.043934   0.469130  -0.030077   0.005198   0.000250  -0.055757
    24  H    0.227951  -0.027058  -0.004258  -0.007993   0.033387  -0.000291
    25  H   -0.019442   0.002741  -0.003676  -0.031162   0.317722  -0.000323
    26  H   -0.004398   0.002179   0.000584  -0.038345   0.358195  -0.000185
    27  H    0.002508   0.000014   0.002060  -0.035939   0.361812   0.000165
    28  H   -0.000000   0.000025   0.000265   0.001251  -0.000056   0.001489
    29  H    0.000001  -0.000167   0.003279   0.001929   0.000349  -0.003909
    30  H    0.000002  -0.000336   0.003423   0.001236   0.000478  -0.003200
    31  H   -0.000000   0.000003  -0.000004   0.000000   0.000000  -0.000107
    32  H   -0.000000   0.000002  -0.000000   0.000000  -0.000000   0.000019
    33  H    0.000000  -0.000000   0.000002  -0.000000   0.000000  -0.000064
    34  H    0.000000  -0.000054  -0.000009   0.000000   0.000000  -0.000263
    35  H   -0.000000   0.000000   0.000000  -0.000000  -0.000000  -0.000038
    36  H   -0.000000  -0.000000   0.000000  -0.000000   0.000000  -0.000001
    37  H    0.000000  -0.000000  -0.000000  -0.000000   0.000000  -0.000000
    38  H    0.000000  -0.000000   0.000000   0.000000   0.000000  -0.000000
    39  H   -0.000000  -0.000000   0.000000  -0.000000   0.000000  -0.000000
    40  H    0.000000  -0.000000   0.000000  -0.000000   0.000000  -0.000000
    41  H   -0.000000   0.000040  -0.000189   0.000000  -0.000000  -0.003224
    42  H    0.000000  -0.000014   0.000261  -0.000000   0.000000  -0.007394
    43  H   -0.000596  -0.037288   0.006384  -0.000034  -0.000030  -0.000140
               7          8          9         10         11         12
     1  O   -0.000007  -0.000005   0.000207   0.002739  -0.000005   0.000000
     2  C    0.004384   0.000143  -0.044391   0.022537   0.003021  -0.000085
     3  C   -0.055649  -0.011480  -0.039834  -0.057668  -0.000063  -0.000005
     4  O   -0.001032  -0.018923   0.002118  -0.000021   0.000000  -0.000000
     5  C   -0.000181   0.000925   0.000052  -0.000058  -0.000000  -0.000000
     6  C    0.269219  -0.027530   0.460915   0.033337   0.005039   0.000287
     7  O    8.239511   0.240078  -0.066851   0.002387  -0.000005  -0.000007
     8  C    0.240078   4.888159   0.004702   0.000032   0.000000   0.000000
     9  C   -0.066851   0.004702   5.073589   0.444792  -0.047540  -0.019240
    10  C    0.002387   0.000032   0.444792   4.612366   0.252126  -0.027994
    11  O   -0.000005   0.000000  -0.047540   0.252126   8.266410   0.248971
    12  C   -0.000007   0.000000  -0.019240  -0.027994   0.248971   4.880723
    13  C    0.000318  -0.000004  -0.020182  -0.009537  -0.043513   0.337218
    14  C   -0.000016  -0.000000  -0.005621  -0.002987   0.004202  -0.047490
    15  C   -0.000000  -0.000000   0.000270   0.000270  -0.001883  -0.004138
    16  C    0.000000  -0.000000  -0.000031  -0.000043   0.000466   0.000756
    17  C    0.000000   0.000000  -0.000000  -0.000002   0.000005  -0.000010
    18  C   -0.000000  -0.000000   0.000000   0.000000  -0.000000   0.000014
    19  O    0.000000   0.000000  -0.000000   0.000000  -0.000000  -0.000000
    20  C    0.000000  -0.000000   0.000000  -0.000000   0.000001  -0.000056
    21  C    0.000000   0.000000  -0.000009   0.000007   0.000054  -0.002754
    22  C   -0.001518  -0.000271   0.322934  -0.064453  -0.018969  -0.038466
    23  C   -0.000072  -0.000028  -0.053413   0.471846  -0.051129   0.003000
    24  H    0.000004  -0.000005  -0.000044   0.000004   0.000000  -0.000000
    25  H   -0.000000  -0.000006  -0.000008   0.000019   0.000000   0.000000
    26  H   -0.000000   0.000003  -0.000003  -0.000001   0.000000   0.000000
    27  H   -0.000010   0.000195   0.000003  -0.000001   0.000000  -0.000000
    28  H   -0.030582   0.366153  -0.000033   0.000003  -0.000000   0.000000
    29  H   -0.035708   0.371226  -0.000337  -0.000019  -0.000000  -0.000000
    30  H   -0.035200   0.369818  -0.000058  -0.000005  -0.000000   0.000000
    31  H    0.000000  -0.000000   0.001898   0.000002  -0.041710   0.359151
    32  H    0.000000   0.000000   0.000097   0.001706  -0.031301   0.372530
    33  H   -0.000002   0.000000   0.004450   0.000513   0.002965  -0.035876
    34  H   -0.000003  -0.000000   0.005866   0.004139   0.003011  -0.008240
    35  H   -0.000007   0.000000  -0.000654  -0.000046   0.000053   0.005255
    36  H   -0.000000  -0.000000  -0.000006   0.000034   0.000157  -0.000064
    37  H   -0.000000  -0.000000   0.000000  -0.000000  -0.000000  -0.000000
    38  H   -0.000000  -0.000000  -0.000000   0.000000  -0.000000  -0.000000
    39  H   -0.000000  -0.000000  -0.000000   0.000000   0.000000  -0.000001
    40  H   -0.000000  -0.000000  -0.000002   0.000000  -0.000000   0.000216
    41  H    0.001172  -0.000014  -0.032652  -0.002633   0.000299  -0.003758
    42  H    0.007124  -0.000169  -0.032765   0.002164   0.000011   0.005155
    43  H    0.000001  -0.000000   0.007285  -0.034629  -0.000091  -0.000064
              13         14         15         16         17         18
     1  O    0.000000  -0.000000  -0.000000   0.000000  -0.000000  -0.000000
     2  C    0.000010   0.000001  -0.000000   0.000000   0.000000   0.000000
     3  C   -0.000112   0.000010  -0.000000   0.000000   0.000000  -0.000000
     4  O    0.000000  -0.000000   0.000000  -0.000000  -0.000000   0.000000
     5  C   -0.000000  -0.000000   0.000000  -0.000000  -0.000000   0.000000
     6  C    0.003997  -0.000223   0.000000   0.000000   0.000000   0.000000
     7  O    0.000318  -0.000016  -0.000000   0.000000   0.000000  -0.000000
     8  C   -0.000004  -0.000000  -0.000000  -0.000000   0.000000  -0.000000
     9  C   -0.020182  -0.005621   0.000270  -0.000031  -0.000000   0.000000
    10  C   -0.009537  -0.002987   0.000270  -0.000043  -0.000002   0.000000
    11  O   -0.043513   0.004202  -0.001883   0.000466   0.000005  -0.000000
    12  C    0.337218  -0.047490  -0.004138   0.000756  -0.000010   0.000014
    13  C    5.109100   0.333394  -0.036653  -0.002276  -0.000211   0.000014
    14  C    0.333394   5.219021   0.344311  -0.045210   0.007294   0.000516
    15  C   -0.036653   0.344311   4.670163   0.550096  -0.026372  -0.033416
    16  C   -0.002276  -0.045210   0.550096   4.956547   0.500819  -0.018075
    17  C   -0.000211   0.007294  -0.026372   0.500819   4.980823   0.544919
    18  C    0.000014   0.000516  -0.033416  -0.018075   0.544919   4.468009
    19  O    0.000000   0.000000   0.000161   0.002677  -0.047316   0.260717
    20  C    0.000203   0.006538  -0.023948  -0.042211  -0.063804   0.505656
    21  C   -0.003763  -0.067524   0.537032  -0.039942  -0.042036  -0.010878
    22  C    0.323471  -0.048720   0.004497  -0.000066   0.000001  -0.000000
    23  C   -0.000094  -0.000202   0.000011  -0.000005  -0.000000   0.000000
    24  H    0.000000   0.000000  -0.000000   0.000000  -0.000000   0.000000
    25  H   -0.000000  -0.000000   0.000000  -0.000000  -0.000000   0.000000
    26  H   -0.000000   0.000000  -0.000000   0.000000   0.000000  -0.000000
    27  H    0.000000  -0.000000   0.000000  -0.000000  -0.000000  -0.000000
    28  H   -0.000001   0.000000   0.000000  -0.000000  -0.000000   0.000000
    29  H    0.000001   0.000000   0.000000  -0.000000  -0.000000   0.000000
    30  H    0.000000  -0.000000  -0.000000   0.000000   0.000000  -0.000000
    31  H   -0.045253   0.007012  -0.000250   0.000052   0.000001  -0.000000
    32  H   -0.032453  -0.011803   0.010687   0.001309  -0.000032  -0.000059
    33  H    0.355612  -0.041320  -0.007972   0.000056   0.000012  -0.000007
    34  H   -0.030984   0.360890  -0.032807  -0.005087   0.000271  -0.000006
    35  H   -0.038055   0.354783  -0.030094   0.001770  -0.000252   0.000030
    36  H    0.000166  -0.010042  -0.038189   0.356897  -0.045083   0.004048
    37  H    0.000001  -0.000172   0.004166  -0.040180   0.344478  -0.036947
    38  H    0.000000  -0.000000  -0.000019  -0.000115   0.004229  -0.024654
    39  H    0.000003  -0.000193   0.003619   0.000678   0.005351  -0.043371
    40  H    0.000486  -0.008509  -0.044706   0.005805   0.000394   0.003298
    41  H   -0.033750   0.005061  -0.000092   0.000000  -0.000000   0.000000
    42  H   -0.034801  -0.005219   0.000084   0.000000   0.000000   0.000000
    43  H    0.000036   0.000003   0.000000  -0.000000  -0.000000   0.000000
              19         20         21         22         23         24
     1  O    0.000000   0.000000  -0.000000   0.000000  -0.043934   0.227951
     2  C   -0.000000   0.000000  -0.000000  -0.000723   0.469130  -0.027058
     3  C    0.000000  -0.000000   0.000000   0.009789  -0.030077  -0.004258
     4  O    0.000000  -0.000000  -0.000000  -0.000026   0.005198  -0.007993
     5  C    0.000000   0.000000   0.000000   0.000002   0.000250   0.033387
     6  C   -0.000000   0.000000  -0.000000  -0.062617  -0.055757  -0.000291
     7  O    0.000000   0.000000   0.000000  -0.001518  -0.000072   0.000004
     8  C    0.000000  -0.000000   0.000000  -0.000271  -0.000028  -0.000005
     9  C   -0.000000   0.000000  -0.000009   0.322934  -0.053413  -0.000044
    10  C    0.000000  -0.000000   0.000007  -0.064453   0.471846   0.000004
    11  O   -0.000000   0.000001   0.000054  -0.018969  -0.051129   0.000000
    12  C   -0.000000  -0.000056  -0.002754  -0.038466   0.003000  -0.000000
    13  C    0.000000   0.000203  -0.003763   0.323471  -0.000094   0.000000
    14  C    0.000000   0.006538  -0.067524  -0.048720  -0.000202   0.000000
    15  C    0.000161  -0.023948   0.537032   0.004497   0.000011  -0.000000
    16  C    0.002677  -0.042211  -0.039942  -0.000066  -0.000005   0.000000
    17  C   -0.047316  -0.063804  -0.042036   0.000001  -0.000000  -0.000000
    18  C    0.260717   0.505656  -0.010878  -0.000000   0.000000   0.000000
    19  O    8.288126  -0.054670   0.004927   0.000000   0.000000   0.000000
    20  C   -0.054670   5.086500   0.468362  -0.000001  -0.000000   0.000000
    21  C    0.004927   0.468362   5.010684   0.000314   0.000000  -0.000000
    22  C    0.000000  -0.000001   0.000314   5.218388   0.009881  -0.000000
    23  C    0.000000  -0.000000   0.000000   0.009881   5.196979   0.002198
    24  H    0.000000   0.000000  -0.000000  -0.000000   0.002198   0.355283
    25  H    0.000000  -0.000000   0.000000   0.000000  -0.000655   0.018994
    26  H    0.000000   0.000000   0.000000   0.000000  -0.000126   0.009904
    27  H    0.000000  -0.000000  -0.000000  -0.000000   0.000017  -0.002781
    28  H    0.000000  -0.000000   0.000000  -0.000038  -0.000001   0.000000
    29  H    0.000000   0.000000  -0.000000   0.000055   0.000002  -0.000002
    30  H    0.000000   0.000000   0.000000   0.000023  -0.000005  -0.000004
    31  H    0.000000  -0.000000   0.000036  -0.007858   0.000025   0.000000
    32  H    0.000000  -0.000098   0.002497   0.004771  -0.000095   0.000000
    33  H   -0.000000   0.000031   0.004816  -0.035532   0.000002  -0.000000
    34  H   -0.000000  -0.000150   0.004682  -0.005887  -0.000065   0.000000
    35  H   -0.000000  -0.000061  -0.005227  -0.003169   0.000001   0.000000
    36  H   -0.000044   0.000253   0.006239  -0.000007   0.000003  -0.000000
    37  H   -0.000853   0.006686   0.000271  -0.000000  -0.000000   0.000000
    38  H    0.233711  -0.002405   0.000454  -0.000000  -0.000000   0.000000
    39  H   -0.005825   0.345202  -0.036570  -0.000000  -0.000000  -0.000000
    40  H   -0.000060  -0.038464   0.350695  -0.000172   0.000000  -0.000000
    41  H   -0.000000  -0.000000  -0.000011   0.356513  -0.000230   0.000000
    42  H   -0.000000  -0.000000  -0.000001   0.366425  -0.000109  -0.000000
    43  H   -0.000000  -0.000000   0.000000  -0.000162   0.333630   0.000082
              25         26         27         28         29         30
     1  O   -0.019442  -0.004398   0.002508  -0.000000   0.000001   0.000002
     2  C    0.002741   0.002179   0.000014   0.000025  -0.000167  -0.000336
     3  C   -0.003676   0.000584   0.002060   0.000265   0.003279   0.003423
     4  O   -0.031162  -0.038345  -0.035939   0.001251   0.001929   0.001236
     5  C    0.317722   0.358195   0.361812  -0.000056   0.000349   0.000478
     6  C   -0.000323  -0.000185   0.000165   0.001489  -0.003909  -0.003200
     7  O   -0.000000  -0.000000  -0.000010  -0.030582  -0.035708  -0.035200
     8  C   -0.000006   0.000003   0.000195   0.366153   0.371226   0.369818
     9  C   -0.000008  -0.000003   0.000003  -0.000033  -0.000337  -0.000058
    10  C    0.000019  -0.000001  -0.000001   0.000003  -0.000019  -0.000005
    11  O    0.000000   0.000000   0.000000  -0.000000  -0.000000  -0.000000
    12  C    0.000000   0.000000  -0.000000   0.000000  -0.000000   0.000000
    13  C   -0.000000  -0.000000   0.000000  -0.000001   0.000001   0.000000
    14  C   -0.000000   0.000000  -0.000000   0.000000   0.000000  -0.000000
    15  C    0.000000  -0.000000   0.000000   0.000000   0.000000  -0.000000
    16  C   -0.000000   0.000000  -0.000000  -0.000000  -0.000000   0.000000
    17  C   -0.000000   0.000000  -0.000000  -0.000000  -0.000000   0.000000
    18  C    0.000000  -0.000000  -0.000000   0.000000   0.000000  -0.000000
    19  O    0.000000   0.000000   0.000000   0.000000   0.000000   0.000000
    20  C   -0.000000   0.000000  -0.000000  -0.000000   0.000000   0.000000
    21  C    0.000000   0.000000  -0.000000   0.000000  -0.000000   0.000000
    22  C    0.000000   0.000000  -0.000000  -0.000038   0.000055   0.000023
    23  C   -0.000655  -0.000126   0.000017  -0.000001   0.000002  -0.000005
    24  H    0.018994   0.009904  -0.002781   0.000000  -0.000002  -0.000004
    25  H    0.635893  -0.060162  -0.024471   0.000002   0.000012  -0.000024
    26  H   -0.060162   0.591439  -0.037980   0.000002  -0.000057   0.000020
    27  H   -0.024471  -0.037980   0.562594  -0.000018   0.000050   0.000059
    28  H    0.000002   0.000002  -0.000018   0.584821  -0.035705  -0.035606
    29  H    0.000012  -0.000057   0.000050  -0.035705   0.585449  -0.040627
    30  H   -0.000024   0.000020   0.000059  -0.035606  -0.040627   0.586712
    31  H   -0.000000   0.000000  -0.000000  -0.000000   0.000000   0.000000
    32  H    0.000000  -0.000000   0.000000  -0.000000  -0.000000   0.000000
    33  H   -0.000000  -0.000000  -0.000000   0.000000   0.000000  -0.000000
    34  H    0.000000  -0.000000  -0.000000   0.000000   0.000000  -0.000000
    35  H    0.000000   0.000000  -0.000000   0.000000   0.000000  -0.000000
    36  H    0.000000   0.000000  -0.000000   0.000000  -0.000000   0.000000
    37  H   -0.000000  -0.000000  -0.000000   0.000000   0.000000  -0.000000
    38  H    0.000000   0.000000   0.000000   0.000000   0.000000   0.000000
    39  H   -0.000000   0.000000   0.000000  -0.000000  -0.000000   0.000000
    40  H    0.000000  -0.000000  -0.000000   0.000000   0.000000  -0.000000
    41  H   -0.000000  -0.000000   0.000000   0.000000   0.000004  -0.000009
    42  H    0.000000  -0.000000   0.000000  -0.000006  -0.000042   0.000037
    43  H    0.000013   0.000003  -0.000000   0.000000   0.000000   0.000000
              31         32         33         34         35         36
     1  O   -0.000000  -0.000000   0.000000   0.000000  -0.000000  -0.000000
     2  C    0.000003   0.000002  -0.000000  -0.000054   0.000000  -0.000000
     3  C   -0.000004  -0.000000   0.000002  -0.000009   0.000000   0.000000
     4  O    0.000000   0.000000  -0.000000   0.000000  -0.000000  -0.000000
     5  C    0.000000  -0.000000   0.000000   0.000000  -0.000000   0.000000
     6  C   -0.000107   0.000019  -0.000064  -0.000263  -0.000038  -0.000001
     7  O    0.000000   0.000000  -0.000002  -0.000003  -0.000007  -0.000000
     8  C   -0.000000   0.000000   0.000000  -0.000000   0.000000  -0.000000
     9  C    0.001898   0.000097   0.004450   0.005866  -0.000654  -0.000006
    10  C    0.000002   0.001706   0.000513   0.004139  -0.000046   0.000034
    11  O   -0.041710  -0.031301   0.002965   0.003011   0.000053   0.000157
    12  C    0.359151   0.372530  -0.035876  -0.008240   0.005255  -0.000064
    13  C   -0.045253  -0.032453   0.355612  -0.030984  -0.038055   0.000166
    14  C    0.007012  -0.011803  -0.041320   0.360890   0.354783  -0.010042
    15  C   -0.000250   0.010687  -0.007972  -0.032807  -0.030094  -0.038189
    16  C    0.000052   0.001309   0.000056  -0.005087   0.001770   0.356897
    17  C    0.000001  -0.000032   0.000012   0.000271  -0.000252  -0.045083
    18  C   -0.000000  -0.000059  -0.000007  -0.000006   0.000030   0.004048
    19  O    0.000000   0.000000  -0.000000  -0.000000  -0.000000  -0.000044
    20  C   -0.000000  -0.000098   0.000031  -0.000150  -0.000061   0.000253
    21  C    0.000036   0.002497   0.004816   0.004682  -0.005227   0.006239
    22  C   -0.007858   0.004771  -0.035532  -0.005887  -0.003169  -0.000007
    23  C    0.000025  -0.000095   0.000002  -0.000065   0.000001   0.000003
    24  H    0.000000   0.000000  -0.000000   0.000000   0.000000  -0.000000
    25  H   -0.000000   0.000000  -0.000000   0.000000   0.000000   0.000000
    26  H    0.000000  -0.000000  -0.000000  -0.000000   0.000000   0.000000
    27  H   -0.000000   0.000000  -0.000000  -0.000000  -0.000000  -0.000000
    28  H   -0.000000  -0.000000   0.000000   0.000000   0.000000   0.000000
    29  H    0.000000  -0.000000   0.000000   0.000000   0.000000  -0.000000
    30  H    0.000000   0.000000  -0.000000  -0.000000  -0.000000   0.000000
    31  H    0.640160  -0.045232  -0.001367   0.000069  -0.000112   0.000002
    32  H   -0.045232   0.563214   0.000122  -0.000033   0.000094  -0.000015
    33  H   -0.001367   0.000122   0.630678   0.005301  -0.004459   0.000003
    34  H    0.000069  -0.000033   0.005301   0.567848  -0.033277   0.006890
    35  H   -0.000112   0.000094  -0.004459  -0.033277   0.603179   0.000130
    36  H    0.000002  -0.000015   0.000003   0.006890   0.000130   0.586412
    37  H    0.000000  -0.000002   0.000000  -0.000010   0.000004  -0.005981
    38  H    0.000000  -0.000000  -0.000000   0.000000   0.000000   0.000003
    39  H   -0.000000   0.000000   0.000007   0.000003  -0.000001   0.000015
    40  H   -0.000003  -0.000004   0.003858   0.000009   0.002188  -0.000173
    41  H    0.002916  -0.000111  -0.004774   0.000085  -0.000023   0.000000
    42  H    0.000023  -0.000133  -0.001961  -0.000399   0.005478   0.000000
    43  H    0.000014  -0.000024  -0.000000   0.000002   0.000000   0.000002
              37         38         39         40         41         42
     1  O    0.000000   0.000000  -0.000000   0.000000  -0.000000   0.000000
     2  C   -0.000000  -0.000000  -0.000000  -0.000000   0.000040  -0.000014
     3  C   -0.000000   0.000000   0.000000   0.000000  -0.000189   0.000261
     4  O   -0.000000   0.000000  -0.000000  -0.000000   0.000000  -0.000000
     5  C    0.000000   0.000000   0.000000   0.000000  -0.000000   0.000000
     6  C   -0.000000  -0.000000  -0.000000  -0.000000  -0.003224  -0.007394
     7  O   -0.000000  -0.000000  -0.000000  -0.000000   0.001172   0.007124
     8  C   -0.000000  -0.000000  -0.000000  -0.000000  -0.000014  -0.000169
     9  C    0.000000  -0.000000  -0.000000  -0.000002  -0.032652  -0.032765
    10  C   -0.000000   0.000000   0.000000   0.000000  -0.002633   0.002164
    11  O   -0.000000  -0.000000   0.000000  -0.000000   0.000299   0.000011
    12  C   -0.000000  -0.000000  -0.000001   0.000216  -0.003758   0.005155
    13  C    0.000001   0.000000   0.000003   0.000486  -0.033750  -0.034801
    14  C   -0.000172  -0.000000  -0.000193  -0.008509   0.005061  -0.005219
    15  C    0.004166  -0.000019   0.003619  -0.044706  -0.000092   0.000084
    16  C   -0.040180  -0.000115   0.000678   0.005805   0.000000   0.000000
    17  C    0.344478   0.004229   0.005351   0.000394  -0.000000   0.000000
    18  C   -0.036947  -0.024654  -0.043371   0.003298   0.000000   0.000000
    19  O   -0.000853   0.233711  -0.005825  -0.000060  -0.000000  -0.000000
    20  C    0.006686  -0.002405   0.345202  -0.038464  -0.000000  -0.000000
    21  C    0.000271   0.000454  -0.036570   0.350695  -0.000011  -0.000001
    22  C   -0.000000  -0.000000  -0.000000  -0.000172   0.356513   0.366425
    23  C   -0.000000  -0.000000  -0.000000   0.000000  -0.000230  -0.000109
    24  H    0.000000   0.000000  -0.000000  -0.000000   0.000000  -0.000000
    25  H   -0.000000   0.000000  -0.000000   0.000000  -0.000000   0.000000
    26  H   -0.000000   0.000000   0.000000  -0.000000  -0.000000  -0.000000
    27  H   -0.000000   0.000000   0.000000  -0.000000   0.000000   0.000000
    28  H    0.000000   0.000000  -0.000000   0.000000   0.000000  -0.000006
    29  H    0.000000   0.000000  -0.000000   0.000000   0.000004  -0.000042
    30  H   -0.000000   0.000000   0.000000  -0.000000  -0.000009   0.000037
    31  H    0.000000   0.000000  -0.000000  -0.000003   0.002916   0.000023
[...]
     3  C   -0.000000  -0.000000  -0.000000   0.009654  -0.045770  -0.014544
     4  O    0.000000  -0.000000  -0.000000  -0.000043   0.004559   0.036090
     5  C    0.000000  -0.000000   0.000000   0.000003  -0.000093  -0.001903
     6  C   -0.000000   0.000000  -0.000000  -0.057725  -0.054599   0.001711
     7  O    0.000000   0.000000   0.000000   0.000125   0.000003  -0.000008
     8  C    0.000000  -0.000000   0.000000  -0.000639  -0.000018   0.000006
     9  C    0.000000   0.000000  -0.000002   0.326025  -0.061569  -0.000123
    10  C   -0.000000  -0.000000   0.000004  -0.067113   0.487062  -0.000060
    11  O   -0.000000  -0.000000  -0.000021  -0.017585  -0.055734   0.000001
    12  C   -0.000000   0.000024  -0.000409  -0.039713   0.003642  -0.000000
    13  C    0.000000   0.000004  -0.002500   0.319744  -0.000236   0.000000
    14  C    0.000000   0.006937  -0.059261  -0.043592  -0.000120  -0.000000
    15  C    0.000257  -0.027446   0.552410   0.004071   0.000008   0.000000
    16  C    0.002827  -0.046049  -0.035658  -0.000024  -0.000003  -0.000000
    17  C   -0.050690  -0.066855  -0.043204   0.000001  -0.000000  -0.000000
    18  C    0.283149   0.503793  -0.007178  -0.000000  -0.000000   0.000000
    19  O    8.228011  -0.059490   0.004450   0.000000   0.000000   0.000000
    20  C   -0.059490   5.108871   0.470391   0.000002   0.000000  -0.000000
    21  C    0.004450   0.470391   4.984802   0.000123   0.000000  -0.000000
    22  C    0.000000   0.000002   0.000123   5.204789   0.009164   0.000000
    23  C    0.000000   0.000000   0.000000   0.009164   5.181966   0.006183
    24  H    0.000000  -0.000000  -0.000000   0.000000   0.006183   0.358277
    25  H    0.000000   0.000000  -0.000000   0.000014   0.000043   0.000342
    26  H    0.000000  -0.000000   0.000000  -0.000002  -0.000321  -0.000933
    27  H    0.000000  -0.000000   0.000000  -0.000000   0.000005  -0.000170
    28  H    0.000000  -0.000000  -0.000000  -0.000111  -0.000000  -0.000000
    29  H    0.000000  -0.000000  -0.000000   0.000139  -0.000020  -0.000001
    30  H    0.000000   0.000000   0.000000   0.000140  -0.000002   0.000003
    31  H   -0.000000  -0.000002  -0.000029  -0.005481   0.000384   0.000000
    32  H    0.000000  -0.000078   0.000560   0.004605  -0.000202   0.000000
    33  H    0.000000  -0.000116   0.003776  -0.034229   0.000005   0.000000
    34  H   -0.000000  -0.000198   0.003851  -0.004719  -0.000020   0.000000
    35  H   -0.000000   0.000113  -0.005943  -0.004600  -0.000002  -0.000000
    36  H   -0.000056   0.000390   0.006123  -0.000024  -0.000038  -0.000000
    37  H   -0.001290   0.006741   0.000283  -0.000000   0.000000   0.000000
    38  H    0.242121  -0.004485   0.000598  -0.000000   0.000000   0.000000
    39  H   -0.005528   0.342434  -0.032381  -0.000000  -0.000000   0.000000
    40  H   -0.000056  -0.041676   0.349650  -0.000068  -0.000000   0.000000
    41  H   -0.000000  -0.000000  -0.000005   0.357559  -0.000197   0.000000
    42  H    0.000000  -0.000000  -0.000001   0.366868  -0.000105   0.000000
    43  H   -0.000000  -0.000000   0.000000  -0.000141   0.336724  -0.000294
              25         26         27         28         29         30
     1  O   -0.000015   0.000557  -0.000023  -0.000000   0.000000   0.000008
     2  C   -0.000285   0.003484   0.000011   0.000006   0.000026  -0.000390
     3  C   -0.007844   0.002262   0.004295  -0.000031   0.000146   0.003484
     4  O   -0.035092  -0.037320  -0.031370   0.000096   0.000228   0.012864
     5  C    0.369694   0.363243   0.375963   0.000062  -0.000005  -0.001180
     6  C    0.002619   0.000385  -0.000002   0.003785   0.000142  -0.008340
     7  O    0.011746   0.000174   0.000058  -0.032313  -0.038602  -0.035625
     8  C   -0.000733  -0.000017   0.000047   0.379112   0.362719   0.365289
     9  C   -0.000348  -0.000049   0.000005   0.000106   0.004350  -0.001074
    10  C   -0.000011  -0.000001  -0.000000   0.000005  -0.000162   0.000005
    11  O    0.000000   0.000000   0.000000  -0.000000   0.000000  -0.000000
    12  C    0.000000   0.000000  -0.000000  -0.000000   0.000000  -0.000000
    13  C   -0.000000   0.000000   0.000000  -0.000001  -0.000060   0.000002
    14  C    0.000000  -0.000000  -0.000000   0.000000   0.000034  -0.000000
    15  C    0.000000   0.000000   0.000000  -0.000000   0.000001  -0.000000
    16  C    0.000000  -0.000000  -0.000000   0.000000  -0.000000  -0.000000
    17  C   -0.000000  -0.000000  -0.000000   0.000000  -0.000000  -0.000000
    18  C    0.000000   0.000000   0.000000  -0.000000   0.000000  -0.000000
    19  O    0.000000   0.000000   0.000000   0.000000   0.000000   0.000000
    20  C    0.000000  -0.000000  -0.000000  -0.000000  -0.000000   0.000000
    21  C   -0.000000   0.000000   0.000000  -0.000000  -0.000000   0.000000
    22  C    0.000014  -0.000002  -0.000000  -0.000111   0.000139   0.000140
    23  C    0.000043  -0.000321   0.000005  -0.000000  -0.000020  -0.000002
    24  H    0.000342  -0.000933  -0.000170  -0.000000  -0.000001   0.000003
    25  H    0.560796  -0.041770  -0.031121  -0.000179   0.000168  -0.001622
    26  H   -0.041770   0.590042  -0.031617   0.000003  -0.000001   0.000186
    27  H   -0.031121  -0.031617   0.555154  -0.000021   0.000002  -0.000131
    28  H   -0.000179   0.000003  -0.000021   0.555472  -0.032153  -0.031862
    29  H    0.000168  -0.000001   0.000002  -0.032153   0.601332  -0.044336
    30  H   -0.001622   0.000186  -0.000131  -0.031862  -0.044336   0.573225
    31  H    0.000000  -0.000000  -0.000000   0.000000  -0.000000  -0.000000
    32  H   -0.000000  -0.000000  -0.000000  -0.000000  -0.000000  -0.000000
    33  H    0.000000  -0.000000  -0.000000   0.000000   0.000001   0.000000
    34  H    0.000000   0.000000   0.000000  -0.000000   0.000026   0.000000
    35  H    0.000000  -0.000000  -0.000000   0.000000   0.000036  -0.000000
    36  H   -0.000000  -0.000000  -0.000000   0.000000  -0.000000  -0.000000
    37  H    0.000000   0.000000   0.000000   0.000000   0.000000  -0.000000
    38  H    0.000000   0.000000   0.000000  -0.000000   0.000000   0.000000
    39  H    0.000000  -0.000000   0.000000   0.000000   0.000000  -0.000000
    40  H    0.000000   0.000000   0.000000   0.000000   0.000000  -0.000000
    41  H    0.000003   0.000000   0.000000   0.000012   0.000048  -0.000000
    42  H   -0.000002  -0.000000  -0.000000  -0.000031  -0.000460   0.000056
    43  H   -0.000000   0.000003  -0.000000   0.000000   0.000000   0.000000
              31         32         33         34         35         36
     1  O   -0.000000  -0.000000   0.000000   0.000000  -0.000000  -0.000000
     2  C   -0.000009   0.000003  -0.000001  -0.000035   0.000000   0.000000
     3  C   -0.000005  -0.000000   0.000002  -0.000008  -0.000000   0.000000
     4  O    0.000000   0.000000  -0.000000  -0.000000  -0.000000  -0.000000
     5  C    0.000000   0.000000  -0.000000  -0.000000   0.000000   0.000000
     6  C   -0.000363   0.000024  -0.000098  -0.000363  -0.000007  -0.000002
     7  O   -0.000000   0.000000  -0.000002  -0.000003  -0.000006   0.000000
     8  C   -0.000000   0.000000  -0.000000  -0.000001  -0.000004   0.000000
     9  C    0.001642   0.000396   0.004027   0.004712  -0.000460  -0.000018
    10  C    0.000349   0.002657   0.000633   0.004304  -0.000118   0.000115
    11  O   -0.039436  -0.034607   0.003005   0.003388   0.000127   0.005449
    12  C    0.364698   0.374004  -0.037348  -0.009801   0.005666  -0.001122
    13  C   -0.051978  -0.031996   0.355166  -0.035573  -0.038546  -0.000225
    14  C    0.006601  -0.009551  -0.041117   0.360636   0.355311  -0.007818
    15  C   -0.000227   0.008801  -0.003643  -0.029041  -0.029653  -0.043741
    16  C    0.000135   0.005340   0.000056  -0.004599   0.003948   0.353493
    17  C    0.000006   0.000228   0.000014   0.000178  -0.000207  -0.042168
    18  C    0.000000  -0.000058  -0.000011   0.000003   0.000016   0.004394
    19  O   -0.000000   0.000000   0.000000  -0.000000  -0.000000  -0.000056
    20  C   -0.000002  -0.000078  -0.000116  -0.000198   0.000113   0.000390
    21  C   -0.000029   0.000560   0.003776   0.003851  -0.005943   0.006123
    22  C   -0.005481   0.004605  -0.034229  -0.004719  -0.004600  -0.000024
    23  C    0.000384  -0.000202   0.000005  -0.000020  -0.000002  -0.000038
    24  H    0.000000   0.000000   0.000000   0.000000  -0.000000  -0.000000
    25  H    0.000000  -0.000000   0.000000   0.000000   0.000000  -0.000000
    26  H   -0.000000  -0.000000  -0.000000   0.000000  -0.000000  -0.000000
    27  H   -0.000000  -0.000000  -0.000000   0.000000  -0.000000  -0.000000
    28  H    0.000000  -0.000000   0.000000  -0.000000   0.000000   0.000000
    29  H   -0.000000  -0.000000   0.000001   0.000026   0.000036  -0.000000
    30  H   -0.000000  -0.000000   0.000000   0.000000  -0.000000  -0.000000
    31  H    0.621014  -0.039004  -0.000613   0.000090  -0.000115   0.000122
    32  H   -0.039004   0.556600  -0.000426   0.000097   0.000030  -0.001092
    33  H   -0.000613  -0.000426   0.626400   0.005979  -0.004334   0.000007
    34  H    0.000090   0.000097   0.005979   0.570142  -0.034290   0.004670
    35  H   -0.000115   0.000030  -0.004334  -0.034290   0.604033   0.000068
    36  H    0.000122  -0.001092   0.000007   0.004670   0.000068   0.580873
    37  H   -0.000000   0.000002   0.000000  -0.000006   0.000003  -0.005846
    38  H   -0.000000  -0.000000   0.000000   0.000000   0.000000   0.000006
    39  H    0.000000  -0.000000   0.000003   0.000003  -0.000007   0.000016
    40  H    0.000001  -0.000009   0.000792   0.000042   0.005206  -0.000191
    41  H    0.002237  -0.000155  -0.005647   0.000068  -0.000028   0.000000
    42  H    0.000089  -0.000138  -0.000609  -0.000277   0.005923   0.000002
    43  H    0.000023  -0.000029  -0.000000   0.000003   0.000000   0.000024
              37         38         39         40         41         42
     1  O    0.000000   0.000000   0.000000   0.000000  -0.000000  -0.000000
     2  C   -0.000000  -0.000000  -0.000000  -0.000000   0.000037   0.000003
     3  C   -0.000000   0.000000   0.000000   0.000000  -0.000209   0.000296
     4  O   -0.000000   0.000000   0.000000  -0.000000   0.000001  -0.000001
     5  C   -0.000000   0.000000   0.000000  -0.000000  -0.000001   0.000001
     6  C    0.000000  -0.000000  -0.000000  -0.000000  -0.004594  -0.007091
     7  O   -0.000000  -0.000000   0.000000  -0.000000   0.001286   0.005861
     8  C   -0.000000  -0.000000  -0.000000  -0.000000  -0.000175   0.001161
     9  C    0.000000  -0.000000  -0.000000  -0.000000  -0.028668  -0.033887
    10  C   -0.000000   0.000000   0.000000  -0.000000  -0.001399   0.001795
    11  O   -0.000001  -0.000000   0.000000  -0.000000   0.000206  -0.000032
    12  C    0.000001  -0.000000  -0.000000   0.000060  -0.003611   0.005587
    13  C   -0.000000   0.000000  -0.000001   0.000355  -0.029275  -0.036503
    14  C   -0.000148  -0.000001  -0.000171  -0.009336   0.004782  -0.005636
    15  C    0.003805  -0.000033   0.003494  -0.043065  -0.000094   0.000176
    16  C   -0.038671  -0.000172   0.000647   0.006435  -0.000001   0.000003
    17  C    0.346061   0.006257   0.005120   0.000445  -0.000000  -0.000000
    18  C   -0.037059  -0.031830  -0.046314   0.003372   0.000000   0.000000
    19  O   -0.001290   0.242121  -0.005528  -0.000056  -0.000000   0.000000
    20  C    0.006741  -0.004485   0.342434  -0.041676  -0.000000  -0.000000
    21  C    0.000283   0.000598  -0.032381   0.349650  -0.000005  -0.000001
    22  C   -0.000000  -0.000000  -0.000000  -0.000068   0.357559   0.366868
    23  C    0.000000   0.000000  -0.000000  -0.000000  -0.000197  -0.000105
    24  H    0.000000   0.000000   0.000000   0.000000   0.000000   0.000000
    25  H    0.000000   0.000000   0.000000   0.000000   0.000003  -0.000002
    26  H    0.000000   0.000000  -0.000000   0.000000   0.000000  -0.000000
    27  H    0.000000   0.000000   0.000000   0.000000   0.000000  -0.000000
    28  H    0.000000  -0.000000   0.000000   0.000000   0.000012  -0.000031
    29  H    0.000000   0.000000   0.000000   0.000000   0.000048  -0.000460
    30  H   -0.000000   0.000000  -0.000000  -0.000000  -0.000000   0.000056
    31  H   -0.000000  -0.000000   0.000000   0.000001   0.002237   0.000089
    32  H    0.000002  -0.000000  -0.000000  -0.000009  -0.000155  -0.000138
    33  H    0.000000   0.000000   0.000003   0.000792  -0.005647  -0.000609
    34  H   -0.000006   0.000000   0.000003   0.000042   0.000068  -0.000277
    35  H    0.000003   0.000000  -0.000007   0.005206  -0.000028   0.005923
    36  H   -0.005846   0.000006   0.000016  -0.000191   0.000000   0.000002
    37  H    0.586287  -0.000324  -0.000184   0.000017   0.000000  -0.000000
    38  H   -0.000324   0.374703   0.007295  -0.000014   0.000000  -0.000000
    39  H   -0.000184   0.007295   0.615663  -0.006029   0.000000  -0.000000
    40  H    0.000017  -0.000014  -0.006029   0.612202   0.000002   0.000004
    41  H    0.000000   0.000000   0.000000   0.000002   0.591752  -0.037079
    42  H   -0.000000  -0.000000  -0.000000   0.000004  -0.037079   0.584389
    43  H   -0.000000   0.000000   0.000000   0.000000   0.000002   0.000003
              43
     1  O   -0.001531
     2  C   -0.034212
     3  C    0.006477
     4  O   -0.000049
     5  C    0.000002
     6  C   -0.000287
     7  O    0.000002
     8  C   -0.000000
     9  C    0.006483
    10  C   -0.034566
    11  O   -0.000230
    12  C   -0.000044
    13  C    0.000037
    14  C    0.000003
    15  C    0.000000
    16  C   -0.000003
    17  C   -0.000000
    18  C    0.000000
    19  O   -0.000000
    20  C   -0.000000
    21  C    0.000000
    22  C   -0.000141
    23  C    0.336724
    24  H   -0.000294
    25  H   -0.000000
    26  H    0.000003
    27  H   -0.000000
    28  H    0.000000
    29  H    0.000000
    30  H    0.000000
    31  H    0.000023
    32  H   -0.000029
    33  H   -0.000000
    34  H    0.000003
    35  H    0.000000
    36  H    0.000024
    37  H   -0.000000
    38  H    0.000000
    39  H    0.000000
    40  H    0.000000
    41  H    0.000002
    42  H    0.000003
    43  H    0.577013
 Mulliken charges:
               1
     1  O   -0.656077
     2  C    0.330095
     3  C    0.248670
     4  O   -0.557051
     5  C   -0.219885
     6  C    0.243669
     7  O   -0.531018
     8  C   -0.218652
     9  C    0.056576
    10  C    0.329742
    11  O   -0.537853
    12  C   -0.045152
    13  C   -0.123310
    14  C   -0.351611
    15  C    0.160999
    16  C   -0.195983
    17  C   -0.159353
    18  C    0.348047
    19  O   -0.643704
    20  C   -0.193304
    21  C   -0.190429
    22  C   -0.326596
    23  C   -0.251425
    24  H    0.416905
    25  H    0.173600
    26  H    0.151689
    27  H    0.158915
    28  H    0.158043
    29  H    0.146401
    30  H    0.169301
    31  H    0.139873
    32  H    0.163998
    33  H    0.128329
    34  H    0.160743
    35  H    0.137841
    36  H    0.146589
    37  H    0.140330
    38  H    0.405880
    39  H    0.115941
    40  H    0.121862
    41  H    0.153140
    42  H    0.149636
    43  H    0.144588
 Sum of Mulliken charges =  -0.00000
 Mulliken charges with hydrogens summed into heavy atoms:
               1
     1  O   -0.239172
     2  C    0.330095
     3  C    0.248670
     4  O   -0.557051
     5  C    0.264319
     6  C    0.243669
     7  O   -0.531018
     8  C    0.255093
     9  C    0.056576
    10  C    0.329742
    11  O   -0.537853
    12  C    0.258718
    13  C    0.005019
    14  C   -0.053027
    15  C    0.160999
    16  C   -0.049393
    17  C   -0.019023
    18  C    0.348047
    19  O   -0.237824
    20  C   -0.077362
    21  C   -0.068567
    22  C   -0.023820
    23  C   -0.106837
 Electronic spatial extent (au):  <R**2>=          10324.2794
 Charge=             -0.0000 electrons
 Dipole moment (field-independent basis, Debye):
    X=             -0.3465    Y=              3.8598    Z=              0.5203  Tot=              3.9101
 Quadrupole moment (field-independent basis, Debye-Ang):
   XX=           -107.6506   YY=           -134.0617   ZZ=           -133.7562
   XY=              5.3250   XZ=              3.8400   YZ=             -1.6692
 Traceless Quadrupole moment (field-independent basis, Debye-Ang):
   XX=             17.5056   YY=             -8.9056   ZZ=             -8.6000
   XY=              5.3250   XZ=              3.8400   YZ=             -1.6692
 Octapole moment (field-independent basis, Debye-Ang**2):
  XXX=            -23.3077  YYY=             18.7751  ZZZ=              4.9221  XYY=              4.6868
  XXY=             88.5641  XXZ=             13.6069  XZZ=            -20.2476  YZZ=              1.3707
  YYZ=            -10.3474  XYZ=              8.9399
 Hexadecapole moment (field-independent basis, Debye-Ang**3):
 XXXX=          -8942.7965 YYYY=          -1629.5098 ZZZZ=           -583.6535 XXXY=            561.2864
 XXXZ=             96.8601 YYYX=            -98.4430 YYYZ=            -20.8164 ZZZX=             46.0965
 ZZZY=              4.0752 XXYY=          -2127.7804 XXZZ=          -2009.3639 YYZZ=           -371.6894
 XXYZ=            -23.2743 YYXZ=             32.2158 ZZXY=            -13.3994
 N-N= 1.913291627867D+03 E-N=-6.329688077462D+03  KE= 1.064216051359D+03
 1\1\GINC-C040\FOpt\RB3LYP\6-31G(d)\C18H20O5\XYCAO\28-Dec-2023\0\\# opt
  b3lyp/6-31g(d)\\molecule_15_1\\0,1\O,-3.9813153597,-3.5703325222,0.18
 70475943\C,-3.1769945848,-2.4777557431,0.298529349\C,-3.683811033,-1.2
 104881049,-0.0328116158\O,-5.0033500964,-1.1592144547,-0.4684079175\C,
 -5.9018945881,-0.526197076,0.4573021378\C,-2.8570823955,-0.0870654313,
 0.0572460301\O,-3.3366597564,1.1684629114,-0.2601759881\C,-3.654217126
 6,1.3621188221,-1.6440650865\C,-1.5349813847,-0.1937574273,0.518014439
 \C,-1.0699546268,-1.4722114173,0.8738869921\O,0.2099620571,-1.68456294
 02,1.317709669\C,0.92721743,-0.5234542224,1.7568601682\C,0.8429277357,
 0.6148321462,0.7393513972\C,1.4506682559,0.2331735028,-0.6351190323\C,
 2.9170725734,-0.139874946,-0.5930555853\C,3.3260943768,-1.4751124698,-
 0.4473936046\C,4.6726957985,-1.8239197433,-0.389016332\C,5.6515180882,
 -0.8291176563,-0.4781485466\O,6.961851504,-1.2227268964,-0.419850439\C
 ,5.2683578942,0.5073587669,-0.6251007211\C,3.9143690315,0.8388168904,-
 0.6813693341\C,-0.637236568,1.0237619907,0.6165576424\C,-1.8693749705,
 -2.6125438461,0.7511501261\H,-4.8176573464,-3.2432863645,-0.1940257241
 \H,-5.6273224711,0.5222478297,0.6064058188\H,-5.8957729949,-1.04654944
 88,1.4231312816\H,-6.8970075148,-0.5910269963,0.0104784279\H,-3.987278
 4249,2.3986738381,-1.7353929653\H,-2.7667530875,1.2084471032,-2.271248
 0534\H,-4.4500336487,0.6852865683,-1.9698701791\H,0.5198251981,-0.1957
 263149,2.7246389318\H,1.9528928878,-0.8648912109,1.9084805956\H,1.4165
 23815,1.4600261115,1.1434477859\H,0.8713921485,-0.5933881515,-1.061982
 5751\H,1.3107448654,1.0893667508,-1.3078588821\H,2.5714566537,-2.25473
 32262,-0.3751137759\H,4.9826472043,-2.8585569551,-0.2797101742\H,7.527
 926404,-0.4392054988,-0.4970874334\H,6.0255972227,1.2862093073,-0.7024
 252013\H,3.632372568,1.8826057543,-0.8049001621\H,-0.9227460345,1.6289
 485991,1.4887176969\H,-0.7872921617,1.6727478986,-0.2537455488\H,-1.47
 55875373,-3.5855557272,1.021238794\\Version=ES64L-G16RevA.03\State=1-A
 \HF=-1074.0375734\RMSD=4.612e-09\RMSF=3.367e-06\Dipole=-0.1996569,1.51
 46888,-0.1799933\Quadrupole=12.7574825,-6.8494702,-5.9080124,5.2529252
 ,1.0951432,-1.1577958\PG=C01 [X(C18H20O5)]\\@


 I HAVE NOT FAILED, I HAVE ONLY DISCOVERED 10,000
 WAYS THAT DIDN'T WORK.  -- THOMAS A. EDISON
 Job cpu time:       0 days  3 hours 46 minutes 13.6 seconds.
 Elapsed time:       0 days  0 hours  7 minutes 12.0 seconds.
 File lengths (MBytes):  RWF=     98 Int=      0 D2E=      0 Chk=     13 Scr=      1
 Normal termination of Gaussian 16 at Thu Dec 28 10:46:17 2023.
