 Entering Gaussian System, Link 0=g16
 Input=molecule_6_1.com
 Output=molecule_6_1.log
 Initial command:
 /share/apps/g16/A03/l1.exe "/tmp/954053.tmpdir/scr/Gau-48200.inp" -scrdir="/tmp/954053.tmpdir/scr/"
 Entering Link 1 = /share/apps/g16/A03/l1.exe PID=     48201.
  
 Copyright (c) 1988,1990,1992,1993,1995,1998,2003,2009,2016,
            Gaussian, Inc.  All Rights Reserved.
  
 This is part of the Gaussian(R) 16 program.  It is based on
 the Gaussian(R) 09 system (copyright 2009, Gaussian, Inc.),
 the Gaussian(R) 03 system (copyright 2003, Gaussian, Inc.),
 the Gaussian(R) 98 system (copyright 1998, Gaussian, Inc.),
 the Gaussian(R) 94 system (copyright 1995, Gaussian, Inc.),
 the Gaussian 92(TM) system (copyright 1992, Gaussian, Inc.),
 the Gaussian 90(TM) system (copyright 1990, Gaussian, Inc.),
 the Gaussian 88(TM) system (copyright 1988, Gaussian, Inc.),
 the Gaussian 86(TM) system (copyright 1986, Carnegie Mellon
 University), and the Gaussian 82(TM) system (copyright 1983,
 Carnegie Mellon University). Gaussian is a federally registered
 trademark of Gaussian, Inc.
  
 This software contains proprietary and confidential information,
 including trade secrets, belonging to Gaussian, Inc.
  
 This software is provided under written license and may be
 used, copied, transmitted, or stored only in accord with that
 written license.
  
 The following legend is applicable only to US Government
 contracts under FAR:
  
                    RESTRICTED RIGHTS LEGEND
  
 Use, reproduction and disclosure by the US Government is
 subject to restrictions as set forth in subparagraphs (a)
 and (c) of the Commercial Computer Software - Restricted
 Rights clause in FAR 52.227-19.
  
 Gaussian, Inc.
 340 Quinnipiac St., Bldg. 40, Wallingford CT 06492
  
  
 ---------------------------------------------------------------
 Warning -- This program may not be used in any manner that
 competes with the business of Gaussian, Inc. or will provide
 assistance to any competitor of Gaussian, Inc.  The licensee
 of this program is prohibited from giving any competitor of
 Gaussian, Inc. access to this program.  By using this program,
 the user acknowledges that Gaussian, Inc. is engaged in the
 business of creating and licensing software in the field of
 computational chemistry and represents and warrants to the
 licensee that it is not a competitor of Gaussian, Inc. and that
 it will not use this program in any manner prohibited above.
 ---------------------------------------------------------------
  

 Cite this work as:
 Gaussian 16, Revision A.03,
 M. J. Frisch, G. W. Trucks, H. B. Schlegel, G. E. Scuseria, 
 M. A. Robb, J. R. Cheeseman, G. Scalmani, V. Barone, 
 G. A. Petersson, H. Nakatsuji, X. Li, M. Caricato, A. V. Marenich, 
 J. Bloino, B. G. Janesko, R. Gomperts, B. Mennucci, H. P. Hratchian, 
 J. V. Ortiz, A. F. Izmaylov, J. L. Sonnenberg, D. Williams-Young, 
 F. Ding, F. Lipparini, F. Egidi, J. Goings, B. Peng, A. Petrone, 
 T. Henderson, D. Ranasinghe, V. G. Zakrzewski, J. Gao, N. Rega, 
 G. Zheng, W. Liang, M. Hada, M. Ehara, K. Toyota, R. Fukuda, 
 J. Hasegawa, M. Ishida, T. Nakajima, Y. Honda, O. Kitao, H. Nakai, 
 T. Vreven, K. Throssell, J. A. Montgomery, Jr., J. E. Peralta, 
 F. Ogliaro, M. J. Bearpark, J. J. Heyd, E. N. Brothers, K. N. Kudin, 
 V. N. Staroverov, T. A. Keith, R. Kobayashi, J. Normand, 
 K. Raghavachari, A. P. Rendell, J. C. Burant, S. S. Iyengar, 
 J. Tomasi, M. Cossi, J. M. Millam, M. Klene, C. Adamo, R. Cammi, 
 J. W. Ochterski, R. L. Martin, K. Morokuma, O. Farkas, 
 J. B. Foresman, and D. J. Fox, Gaussian, Inc., Wallingford CT, 2016.
 
 ******************************************
 Gaussian 16:  ES64L-G16RevA.03 25-Dec-2016
                28-Dec-2023 
 ******************************************
 %nprocs=32
 Will use up to   32 processors via shared memory.
 %chk=molecule_6_1.chk
 %mem=10GB
 --------------------
 # opt b3lyp/6-31g(d)
 --------------------
 1/18=20,19=15,26=3,38=1/1,3;
 2/9=110,12=2,17=6,18=5,40=1/2;
 3/5=1,6=6,7=1,11=2,25=1,30=1,71=1,74=-5/1,2,3;
 4//1;
 5/5=2,38=5/2;
 6/7=2,8=2,9=2,10=2,28=1/1;
 7//1,2,3,16;
 1/18=20,19=15,26=3/3(2);
 2/9=110/2;
 99//99;
 2/9=110/2;
 3/5=1,6=6,7=1,11=2,25=1,30=1,71=1,74=-5/1,2,3;
 4/5=5,16=3,69=1/1;
 5/5=2,38=5/2;
 7//1,2,3,16;
 1/18=20,19=15,26=3/3(-5);
 2/9=110/2;
 6/7=2,8=2,9=2,10=2,19=2,28=1/1;
 99/9=1/99;
 ------------
 molecule_6_1
 ------------
 Symbolic Z-matrix:
 Charge =  0 Multiplicity = 1
 O                    -2.16297  -0.21732  -1.67113 
 C                    -2.4822    0.7897   -0.7639 
 C                    -2.3564    0.553     0.7219 
 C                    -1.3735    1.5117    1.4129 
 C                    -0.035     1.508     0.7491 
 C                     0.7751    2.6137    0.5229 
 N                     1.8754    2.2517   -0.1709 
 C                     1.7645    0.9275   -0.3802 
 C                     2.6524    0.1122   -1.0772 
 O                     3.8121    0.6391   -1.641 
 C                     2.3361   -1.2519   -1.1941 
 C                     1.1598   -1.7668   -0.6108 
 C                     0.2636   -0.9294    0.1013 
 C                    -0.9337   -1.5107    0.7876 
 C                    -0.9196   -2.956     1.1936 
 N                    -2.03     -0.8425    1.0261 
 C                     0.6108    0.43      0.1796 
 O                    -2.9139    1.89533  -1.18821 
 H                    -2.25303  -0.06628  -2.66855 
 H                    -3.3591    0.75      1.1581 
 H                    -1.792     2.5418    1.3911 
 H                    -1.2505    1.2208    2.4783 
 H                     0.5595    3.6295    0.8278 
 H                     2.6452    2.8808   -0.4906 
 H                     4.4633    0.054    -2.1511 
 H                     2.9997   -1.9172   -1.7316 
 H                     0.9566   -2.8234   -0.724 
 H                    -1.1495   -3.5933    0.3144 
 H                     0.0748   -3.2319    1.604 
 H                    -1.6793   -3.1503    1.9811 
 

 GradGradGradGradGradGradGradGradGradGradGradGradGradGradGradGradGradGrad
 Berny optimization.
 Initialization pass.
                           ----------------------------
                           !    Initial Parameters    !
                           ! (Angstroms and Degrees)  !
 --------------------------                            --------------------------
 ! Name  Definition              Value          Derivative Info.                !
 --------------------------------------------------------------------------------
 ! R1    R(1,2)                  1.3925         estimate D2E/DX2                !
 ! R2    R(1,19)                 1.0128         estimate D2E/DX2                !
 ! R3    R(2,3)                  1.5098         estimate D2E/DX2                !
 ! R4    R(2,18)                 1.2605         estimate D2E/DX2                !
 ! R5    R(3,4)                  1.5371         estimate D2E/DX2                !
 ! R6    R(3,16)                 1.4651         estimate D2E/DX2                !
 ! R7    R(3,20)                 1.1111         estimate D2E/DX2                !
 ! R8    R(4,5)                  1.4941         estimate D2E/DX2                !
 ! R9    R(4,21)                 1.1121         estimate D2E/DX2                !
 ! R10   R(4,22)                 1.1112         estimate D2E/DX2                !
 ! R11   R(5,6)                  1.3892         estimate D2E/DX2                !
 ! R12   R(5,17)                 1.3797         estimate D2E/DX2                !
 ! R13   R(6,7)                  1.3502         estimate D2E/DX2                !
 ! R14   R(6,23)                 1.0823         estimate D2E/DX2                !
 ! R15   R(7,8)                  1.3452         estimate D2E/DX2                !
 ! R16   R(7,24)                 1.0443         estimate D2E/DX2                !
 ! R17   R(8,9)                  1.3924         estimate D2E/DX2                !
 ! R18   R(8,17)                 1.3755         estimate D2E/DX2                !
 ! R19   R(9,10)                 1.393          estimate D2E/DX2                !
 ! R20   R(9,11)                 1.4052         estimate D2E/DX2                !
 ! R21   R(10,25)                1.0132         estimate D2E/DX2                !
 ! R22   R(11,12)                1.4103         estimate D2E/DX2                !
 ! R23   R(11,26)                1.0825         estimate D2E/DX2                !
 ! R24   R(12,13)                1.4183         estimate D2E/DX2                !
 ! R25   R(12,27)                1.0819         estimate D2E/DX2                !
 ! R26   R(13,14)                1.4975         estimate D2E/DX2                !
 ! R27   R(13,17)                1.4052         estimate D2E/DX2                !
 ! R28   R(14,15)                1.5013         estimate D2E/DX2                !
 ! R29   R(14,16)                1.3059         estimate D2E/DX2                !
 ! R30   R(15,28)                1.11           estimate D2E/DX2                !
 ! R31   R(15,29)                1.1106         estimate D2E/DX2                !
 ! R32   R(15,30)                1.1113         estimate D2E/DX2                !
 ! A1    A(2,1,19)             120.8894         estimate D2E/DX2                !
 ! A2    A(1,2,3)              120.576          estimate D2E/DX2                !
 ! A3    A(1,2,18)             119.5728         estimate D2E/DX2                !
 ! A4    A(3,2,18)             119.8235         estimate D2E/DX2                !
 ! A5    A(2,3,4)              113.4472         estimate D2E/DX2                !
 ! A6    A(2,3,16)             111.853          estimate D2E/DX2                !
 ! A7    A(2,3,20)             106.461          estimate D2E/DX2                !
 ! A8    A(4,3,16)             110.9946         estimate D2E/DX2                !
 ! A9    A(4,3,20)             106.8581         estimate D2E/DX2                !
 ! A10   A(16,3,20)            106.7636         estimate D2E/DX2                !
 ! A11   A(3,4,5)              111.814          estimate D2E/DX2                !
 ! A12   A(3,4,21)             109.1642         estimate D2E/DX2                !
 ! A13   A(3,4,22)             109.7862         estimate D2E/DX2                !
 ! A14   A(5,4,21)             109.3127         estimate D2E/DX2                !
 ! A15   A(5,4,22)             109.0357         estimate D2E/DX2                !
 ! A16   A(21,4,22)            107.6339         estimate D2E/DX2                !
 ! A17   A(4,5,6)              126.3543         estimate D2E/DX2                !
 ! A18   A(4,5,17)             127.2057         estimate D2E/DX2                !
 ! A19   A(6,5,17)             106.3626         estimate D2E/DX2                !
 ! A20   A(5,6,7)              110.2107         estimate D2E/DX2                !
 ! A21   A(5,6,23)             125.802          estimate D2E/DX2                !
 ! A22   A(7,6,23)             123.969          estimate D2E/DX2                !
 ! A23   A(6,7,8)              106.0624         estimate D2E/DX2                !
 ! A24   A(6,7,24)             126.6199         estimate D2E/DX2                !
 ! A25   A(8,7,24)             127.3108         estimate D2E/DX2                !
 ! A26   A(7,8,9)              126.9906         estimate D2E/DX2                !
 ! A27   A(7,8,17)             111.2151         estimate D2E/DX2                !
 ! A28   A(9,8,17)             121.7889         estimate D2E/DX2                !
 ! A29   A(8,9,10)             120.7967         estimate D2E/DX2                !
 ! A30   A(8,9,11)             117.8084         estimate D2E/DX2                !
 ! A31   A(10,9,11)            121.3946         estimate D2E/DX2                !
 ! A32   A(9,10,25)            121.3598         estimate D2E/DX2                !
 ! A33   A(9,11,12)            120.5147         estimate D2E/DX2                !
 ! A34   A(9,11,26)            119.9957         estimate D2E/DX2                !
 ! A35   A(12,11,26)           119.4892         estimate D2E/DX2                !
 ! A36   A(11,12,13)           121.2741         estimate D2E/DX2                !
 ! A37   A(11,12,27)           118.0297         estimate D2E/DX2                !
 ! A38   A(13,12,27)           120.6959         estimate D2E/DX2                !
 ! A39   A(12,13,14)           120.4069         estimate D2E/DX2                !
 ! A40   A(12,13,17)           116.2975         estimate D2E/DX2                !
 ! A41   A(14,13,17)           123.1985         estimate D2E/DX2                !
 ! A42   A(13,14,15)           119.3494         estimate D2E/DX2                !
 ! A43   A(13,14,16)           123.8011         estimate D2E/DX2                !
 ! A44   A(15,14,16)           116.8143         estimate D2E/DX2                !
 ! A45   A(14,15,28)           109.6694         estimate D2E/DX2                !
 ! A46   A(14,15,29)           110.3348         estimate D2E/DX2                !
 ! A47   A(14,15,30)           110.703          estimate D2E/DX2                !
 ! A48   A(28,15,29)           109.6048         estimate D2E/DX2                !
 ! A49   A(28,15,30)           108.6217         estimate D2E/DX2                !
 ! A50   A(29,15,30)           107.866          estimate D2E/DX2                !
 ! A51   A(3,16,14)            129.5316         estimate D2E/DX2                !
 ! A52   A(5,17,8)             106.141          estimate D2E/DX2                !
 ! A53   A(5,17,13)            131.5458         estimate D2E/DX2                !
 ! A54   A(8,17,13)            122.3077         estimate D2E/DX2                !
 ! D1    D(19,1,2,3)           179.482          estimate D2E/DX2                !
 ! D2    D(19,1,2,18)            1.3978         estimate D2E/DX2                !
 ! D3    D(1,2,3,4)            120.0001         estimate D2E/DX2                !
 ! D4    D(1,2,3,16)            -6.4913         estimate D2E/DX2                !
 ! D5    D(1,2,3,20)          -122.7569         estimate D2E/DX2                !
 ! D6    D(18,2,3,4)           -61.9204         estimate D2E/DX2                !
 ! D7    D(18,2,3,16)          171.5881         estimate D2E/DX2                !
 ! D8    D(18,2,3,20)           55.3226         estimate D2E/DX2                !
 ! D9    D(2,3,4,5)            -53.2128         estimate D2E/DX2                !
 ! D10   D(2,3,4,21)            67.8672         estimate D2E/DX2                !
 ! D11   D(2,3,4,22)          -174.3673         estimate D2E/DX2                !
 ! D12   D(16,3,4,5)            73.7302         estimate D2E/DX2                !
 ! D13   D(16,3,4,21)         -165.1898         estimate D2E/DX2                !
 ! D14   D(16,3,4,22)          -47.4243         estimate D2E/DX2                !
 ! D15   D(20,3,4,5)          -170.2239         estimate D2E/DX2                !
 ! D16   D(20,3,4,21)          -49.1439         estimate D2E/DX2                !
 ! D17   D(20,3,4,22)           68.6217         estimate D2E/DX2                !
 ! D18   D(2,3,16,14)           68.1446         estimate D2E/DX2                !
 ! D19   D(4,3,16,14)          -59.6692         estimate D2E/DX2                !
 ! D20   D(20,3,16,14)        -175.7735         estimate D2E/DX2                !
 ! D21   D(3,4,5,6)            140.3646         estimate D2E/DX2                !
 ! D22   D(3,4,5,17)           -35.9924         estimate D2E/DX2                !
 ! D23   D(21,4,5,6)            19.3707         estimate D2E/DX2                !
 ! D24   D(21,4,5,17)         -156.9863         estimate D2E/DX2                !
 ! D25   D(22,4,5,6)           -98.0472         estimate D2E/DX2                !
 ! D26   D(22,4,5,17)           85.5959         estimate D2E/DX2                !
 ! D27   D(4,5,6,7)           -176.3368         estimate D2E/DX2                !
 ! D28   D(4,5,6,23)             2.1501         estimate D2E/DX2                !
 ! D29   D(17,5,6,7)             0.6398         estimate D2E/DX2                !
 ! D30   D(17,5,6,23)          179.1266         estimate D2E/DX2                !
 ! D31   D(4,5,17,8)           176.0551         estimate D2E/DX2                !
 ! D32   D(4,5,17,13)           -3.0868         estimate D2E/DX2                !
 ! D33   D(6,5,17,8)            -0.8877         estimate D2E/DX2                !
 ! D34   D(6,5,17,13)          179.9704         estimate D2E/DX2                !
 ! D35   D(5,6,7,8)             -0.1137         estimate D2E/DX2                !
 ! D36   D(5,6,7,24)           178.985          estimate D2E/DX2                !
 ! D37   D(23,6,7,8)          -178.634          estimate D2E/DX2                !
 ! D38   D(23,6,7,24)            0.4648         estimate D2E/DX2                !
 ! D39   D(6,7,8,9)            178.6845         estimate D2E/DX2                !
 ! D40   D(6,7,8,17)            -0.4719         estimate D2E/DX2                !
 ! D41   D(24,7,8,9)            -0.406          estimate D2E/DX2                !
 ! D42   D(24,7,8,17)         -179.5625         estimate D2E/DX2                !
 ! D43   D(7,8,9,10)             0.6387         estimate D2E/DX2                !
 ! D44   D(7,8,9,11)          -179.167          estimate D2E/DX2                !
 ! D45   D(17,8,9,10)          179.7136         estimate D2E/DX2                !
 ! D46   D(17,8,9,11)           -0.0922         estimate D2E/DX2                !
 ! D47   D(7,8,17,5)             0.8666         estimate D2E/DX2                !
 ! D48   D(7,8,17,13)         -179.8932         estimate D2E/DX2                !
 ! D49   D(9,8,17,5)          -178.3407         estimate D2E/DX2                !
 ! D50   D(9,8,17,13)            0.8995         estimate D2E/DX2                !
 ! D51   D(8,9,10,25)         -179.9041         estimate D2E/DX2                !
 ! D52   D(11,9,10,25)          -0.1054         estimate D2E/DX2                !
 ! D53   D(8,9,11,12)           -0.4789         estimate D2E/DX2                !
 ! D54   D(8,9,11,26)          179.7809         estimate D2E/DX2                !
 ! D55   D(10,9,11,12)         179.7166         estimate D2E/DX2                !
 ! D56   D(10,9,11,26)          -0.0236         estimate D2E/DX2                !
 ! D57   D(9,11,12,13)           0.2776         estimate D2E/DX2                !
 ! D58   D(9,11,12,27)        -179.8905         estimate D2E/DX2                !
 ! D59   D(26,11,12,13)       -179.9809         estimate D2E/DX2                !
 ! D60   D(26,11,12,27)         -0.149          estimate D2E/DX2                !
 ! D61   D(11,12,13,14)       -176.0541         estimate D2E/DX2                !
 ! D62   D(11,12,13,17)          0.4763         estimate D2E/DX2                !
 ! D63   D(27,12,13,14)          4.1185         estimate D2E/DX2                !
 ! D64   D(27,12,13,17)       -179.3511         estimate D2E/DX2                !
 ! D65   D(12,13,14,15)         24.023          estimate D2E/DX2                !
 ! D66   D(12,13,14,16)       -153.7469         estimate D2E/DX2                !
 ! D67   D(17,13,14,15)       -152.2594         estimate D2E/DX2                !
 ! D68   D(17,13,14,16)         29.9707         estimate D2E/DX2                !
 ! D69   D(12,13,17,5)         177.9628         estimate D2E/DX2                !
 ! D70   D(12,13,17,8)          -1.0619         estimate D2E/DX2                !
 ! D71   D(14,13,17,5)          -5.6133         estimate D2E/DX2                !
 ! D72   D(14,13,17,8)         175.3619         estimate D2E/DX2                !
 ! D73   D(13,14,15,28)        -80.2138         estimate D2E/DX2                !
 ! D74   D(13,14,15,29)         40.6151         estimate D2E/DX2                !
 ! D75   D(13,14,15,30)        159.9445         estimate D2E/DX2                !
 ! D76   D(16,14,15,28)         97.7098         estimate D2E/DX2                !
 ! D77   D(16,14,15,29)       -141.4613         estimate D2E/DX2                !
 ! D78   D(16,14,15,30)        -22.1319         estimate D2E/DX2                !
 ! D79   D(13,14,16,3)          -0.6023         estimate D2E/DX2                !
 ! D80   D(15,14,16,3)        -178.4243         estimate D2E/DX2                !
 --------------------------------------------------------------------------------
 Trust Radius=3.00D-01 FncErr=1.00D-07 GrdErr=1.00D-06 EigMax=2.50D+02 EigMin=1.00D-04
 Number of steps in this run=    176 maximum allowed number of steps=    180.
 GradGradGradGradGradGradGradGradGradGradGradGradGradGradGradGradGradGrad

                          Input orientation:                          
 ---------------------------------------------------------------------
 Center     Atomic      Atomic             Coordinates (Angstroms)
 Number     Number       Type             X           Y           Z
 ---------------------------------------------------------------------
      1          8           0       -2.162970   -0.217320   -1.671130
      2          6           0       -2.482200    0.789700   -0.763900
      3          6           0       -2.356400    0.553000    0.721900
      4          6           0       -1.373500    1.511700    1.412900
      5          6           0       -0.035000    1.508000    0.749100
      6          6           0        0.775100    2.613700    0.522900
      7          7           0        1.875400    2.251700   -0.170900
      8          6           0        1.764500    0.927500   -0.380200
      9          6           0        2.652400    0.112200   -1.077200
     10          8           0        3.812100    0.639100   -1.641000
     11          6           0        2.336100   -1.251900   -1.194100
     12          6           0        1.159800   -1.766800   -0.610800
     13          6           0        0.263600   -0.929400    0.101300
     14          6           0       -0.933700   -1.510700    0.787600
     15          6           0       -0.919600   -2.956000    1.193600
     16          7           0       -2.030000   -0.842500    1.026100
     17          6           0        0.610800    0.430000    0.179600
     18          8           0       -2.913900    1.895330   -1.188210
     19          1           0       -2.253030   -0.066280   -2.668550
     20          1           0       -3.359100    0.750000    1.158100
     21          1           0       -1.792000    2.541800    1.391100
     22          1           0       -1.250500    1.220800    2.478300
     23          1           0        0.559500    3.629500    0.827800
     24          1           0        2.645200    2.880800   -0.490600
     25          1           0        4.463300    0.054000   -2.151100
     26          1           0        2.999700   -1.917200   -1.731600
     27          1           0        0.956600   -2.823400   -0.724000
     28          1           0       -1.149500   -3.593300    0.314400
     29          1           0        0.074800   -3.231900    1.604000
     30          1           0       -1.679300   -3.150300    1.981100
 ---------------------------------------------------------------------
                    Distance matrix (angstroms):
                    1          2          3          4          5
     1  O    0.000000
     2  C    1.392503   0.000000
     3  C    2.521389   1.509786   0.000000
     4  C    3.622708   2.547343   1.537101   0.000000
     5  C    3.655475   2.965453   2.510311   1.494064   0.000000
     6  C    4.632569   3.948776   3.753982   2.573516   1.389245
     7  N    4.965398   4.634412   4.646591   3.689360   2.247024
     8  C    4.289771   4.266225   4.282136   3.661085   2.202385
     9  C    4.863037   5.188572   5.340332   4.936301   3.536347
    10  O    6.036209   6.356902   6.606141   6.080969   4.611696
    11  C    4.641071   5.250640   5.380360   5.309903   4.124947
    12  C    3.816541   4.452336   4.418283   4.611023   3.741816
    13  C    3.088172   3.353102   3.073606   3.218596   2.539631
    14  C    3.037975   3.177553   2.507439   3.117583   3.149872
    15  C    4.153675   4.505973   3.820992   4.496049   4.572460
    16  N    2.771927   2.464277   1.465092   2.474442   3.095417
    17  C    3.396767   3.253648   3.018856   2.574597   1.379664
    18  O    2.293556   1.260485   2.400245   3.047257   3.491598
    19  H    1.012803   2.100693   3.448093   4.463388   4.367877
    20  H    3.220400   2.112963   1.111075   2.141896   3.433873
    21  H    4.138552   2.861862   2.172948   1.112081   2.137278
    22  H    4.485372   3.494967   2.180347   1.111229   2.133086
    23  H    5.334278   4.455324   4.240111   2.926416   2.204628
    24  H    5.840419   5.544152   5.648434   4.652709   3.256518
    25  H    6.649168   7.120783   7.416970   6.992512   5.546168
    26  H    5.435661   6.189909   6.388220   6.385148   5.205312
    27  H    4.173778   4.988129   4.946380   5.365520   4.681273
    28  H    4.045577   4.706327   4.337565   5.226653   5.239689
    29  H    4.982146   5.321510   4.584136   4.963450   4.817630
    30  H    4.709044   4.868601   3.969695   4.706443   5.091297
                    6          7          8          9         10
     6  C    0.000000
     7  N    1.350208   0.000000
     8  C    2.153549   1.345218   0.000000
     9  C    3.513129   2.450014   1.392440   0.000000
    10  O    4.219583   2.917615   2.421871   1.392982   0.000000
    11  C    4.508622   3.678912   2.395609   1.405162   2.440118
    12  C    4.541151   4.105355   2.770937   2.444591   3.726173
    13  C    3.604572   3.576505   2.435697   2.860098   4.252958
    14  C    4.472219   4.792225   3.819537   4.355617   5.748248
    15  C    5.860325   6.065808   4.976225   5.227769   6.583972
    16  N    4.479633   5.124357   4.416878   5.221129   6.590804
    17  C    2.216618   2.245140   1.375466   2.418403   3.688716
    18  O    4.129488   4.909105   4.845307   5.845988   6.857274
    19  H    5.151429   5.353057   4.729132   5.160183   6.191867
    20  H    4.579134   5.605474   5.352490   6.445269   7.698920
    21  H    2.710893   3.996727   4.288608   5.634550   6.649800
    22  H    3.141149   4.225194   4.165006   5.394738   6.552627
    23  H    1.082265   2.151122   3.195637   4.514494   5.061311
    24  H    2.143781   1.044302   2.145507   2.830070   2.776742
    25  H    5.225434   3.930433   3.344041   2.106183   1.013215
    26  H    5.528171   4.591248   3.382945   2.160398   2.683817
    27  H    5.581197   5.187172   3.852292   3.408553   4.580794
    28  H    6.501877   6.599209   5.423237   5.488326   6.808397
    29  H    5.985836   6.038402   4.908436   5.001586   6.283477
    30  H    6.432272   6.815321   5.836433   6.225812   7.591748
                   11         12         13         14         15
    11  C    0.000000
    12  C    1.410334   0.000000
    13  C    2.465223   1.418273   0.000000
    14  C    3.832193   2.530583   1.497479   0.000000
    15  C    4.382311   2.998993   2.588472   1.501308   0.000000
    16  N    4.915254   3.702512   2.474552   1.305851   2.393309
    17  C    2.773536   2.398346   1.405221   2.553715   3.851664
    18  O    6.121078   5.508142   4.442797   4.407500   5.760699
    19  H    4.963850   4.332841   3.840634   3.971392   5.004470
    20  H    6.478870   5.466603   4.130516   3.336255   4.436987
    21  H    6.173867   5.593278   4.235364   4.186126   5.570089
    22  H    5.697760   4.927255   3.544854   3.227990   4.382420
    23  H    5.574267   5.616937   4.625898   5.352842   6.759464
    24  H    4.203530   4.880681   4.532106   5.807546   7.043619
    25  H    2.673238   4.074426   4.865990   6.341282   7.015891
    26  H    1.082541   2.159640   3.438243   4.688629   4.999681
    27  H    2.143275   1.081900   2.179129   2.753425   2.686056
    28  H    4.461741   3.086254   3.023016   2.146558   1.109954
    29  H    4.106488   2.868638   2.755950   2.155484   1.110577
    30  H    5.459785   4.085646   3.498701   2.160706   1.111329
                   16         17         18         19         20
    16  N    0.000000
    17  C    3.051171   0.000000
    18  O    3.630449   4.054825   0.000000
    19  H    3.781891   4.069370   2.544812   0.000000
    20  H    2.078458   4.101215   2.648614   4.066074   0.000000
    21  H    3.412236   3.420655   2.886074   4.847204   2.391786
    22  H    2.640779   3.061670   4.082302   5.399232   2.531951
    23  H    5.171423   3.264904   4.374488   5.813224   4.874017
    24  H    6.166104   3.254900   5.688708   6.117304   6.581044
    25  H    7.284316   4.518329   7.664250   6.737307   8.522040
    26  H    5.835904   3.856018   7.057005   5.647562   7.476541
    27  H    3.988307   3.394213   6.120676   4.656684   5.910732
    28  H    2.974676   4.393606   5.957852   4.749278   4.945545
    29  H    3.236261   3.965567   6.558754   5.804707   5.276933
    30  H    2.522094   4.616114   6.084993   5.608885   4.325667
                   21         22         23         24         25
    21  H    0.000000
    22  H    1.794510   0.000000
    23  H    2.651405   3.435416   0.000000
    24  H    4.831610   5.171697   2.578541   0.000000
    25  H    7.606912   7.445823   6.074348   3.748806   0.000000
    26  H    7.252195   6.755331   6.578069   4.968557   2.490730
    27  H    6.388570   5.610844   6.648736   5.953465   4.755312
    28  H    6.261912   5.279036   7.439966   7.547300   7.133373
    29  H    6.071728   4.727299   6.922155   6.954093   6.645062
    30  H    5.723705   4.420135   7.232428   7.822069   8.066855
                   26         27         28         29         30
    26  H    0.000000
    27  H    2.451676   0.000000
    28  H    4.920497   2.471169   0.000000
    29  H    4.627062   2.522702   1.814549   0.000000
    30  H    6.098993   3.791095   1.804114   1.796032   0.000000
 Stoichiometry    C13H12N2O3
 Framework group  C1[X(C13H12N2O3)]
 Deg. of freedom    84
 Full point group                 C1      NOp   1
 Largest Abelian subgroup         C1      NOp   1
 Largest concise Abelian subgroup C1      NOp   1
                         Standard orientation:                         
 ---------------------------------------------------------------------
 Center     Atomic      Atomic             Coordinates (Angstroms)
 Number     Number       Type             X           Y           Z
 ---------------------------------------------------------------------
      1          8           0       -1.766103    0.180054    1.990040
      2          6           0       -2.225499   -0.795878    1.109373
      3          6           0       -2.450203   -0.470974   -0.347816
      4          6           0       -1.596851   -1.321121   -1.302655
      5          6           0       -0.145628   -1.261532   -0.952475
      6          6           0        0.753926   -2.319656   -0.986805
      7          7           0        1.960531   -1.921111   -0.530375
      8          6           0        1.827152   -0.620928   -0.212024
      9          6           0        2.803006    0.214431    0.325351
     10          8           0        4.086870   -0.261402    0.581619
     11          6           0        2.446839    1.545269    0.601928
     12          6           0        1.143098    2.009066    0.329541
     13          6           0        0.156984    1.151939   -0.222196
     14          6           0       -1.193987    1.686019   -0.585624
     15          6           0       -1.350761    3.148743   -0.885268
     16          7           0       -2.277537    0.958060   -0.620846
     17          6           0        0.551635   -0.174187   -0.467730
     18          8           0       -2.489479   -1.949884    1.542279
     19          1           0       -1.621147   -0.030613    2.970028
     20          1           0       -3.512972   -0.712405   -0.563965
     21          1           0       -1.942642   -2.377178   -1.259116
     22          1           0       -1.732712   -0.965187   -2.346534
     23          1           0        0.531275   -3.329847   -1.304982
     24          1           0        2.815791   -2.512289   -0.432364
     25          1           0        4.803036    0.338518    0.973801
     26          1           0        3.176836    2.224449    1.023490
     27          1           0        0.912977    3.041543    0.556570
     28          1           0       -1.411629    3.720204    0.064325
     29          1           0       -0.490770    3.514059   -1.485550
     30          1           0       -2.277568    3.332818   -1.470246
 ---------------------------------------------------------------------
 Rotational constants (GHZ):           0.6363407           0.3970257           0.3121812
 Standard basis: 6-31G(d) (6D, 7F)
 There are   294 symmetry adapted cartesian basis functions of A   symmetry.
 There are   294 symmetry adapted basis functions of A   symmetry.
   294 basis functions,   552 primitive gaussians,   294 cartesian basis functions
    64 alpha electrons       64 beta electrons
       nuclear repulsion energy      1332.9234581618 Hartrees.
 NAtoms=   30 NActive=   30 NUniq=   30 SFac= 1.00D+00 NAtFMM=   60 NAOKFM=F Big=F
 Integral buffers will be    131072 words long.
 Raffenetti 2 integral format.
 Two-electron integral symmetry is turned on.
 One-electron integrals computed using PRISM.
 NBasis=   294 RedAO= T EigKep=  2.60D-04  NBF=   294
 NBsUse=   294 1.00D-06 EigRej= -1.00D+00 NBFU=   294
 ExpMin= 1.61D-01 ExpMax= 5.48D+03 ExpMxC= 8.25D+02 IAcc=3 IRadAn=         5 AccDes= 0.00D+00
 Harris functional with IExCor=  402 and IRadAn=       5 diagonalized for initial guess.
 HarFok:  IExCor=  402 AccDes= 0.00D+00 IRadAn=         5 IDoV= 1 UseB2=F ITyADJ=14
 ICtDFT=  3500011 ScaDFX=  1.000000  1.000000  1.000000  1.000000
 FoFCou: FMM=F IPFlag=           0 FMFlag=      100000 FMFlg1=           0
         NFxFlg=           0 DoJE=T BraDBF=F KetDBF=T FulRan=T
         wScrn=  0.000000 ICntrl=       500 IOpCl=  0 I1Cent=   200000004 NGrid=           0
         NMat0=    1 NMatS0=      1 NMatT0=    0 NMatD0=    1 NMtDS0=    0 NMtDT0=    0
 Petite list used in FoFCou.
 Requested convergence on RMS density matrix=1.00D-08 within 128 cycles.
 Requested convergence on MAX density matrix=1.00D-06.
 Requested convergence on             energy=1.00D-06.
 No special actions if energy rises.
 Integral accuracy reduced to 1.0D-05 until final iterations.
 Initial convergence to 1.0D-05 achieved.  Increase integral accuracy.
 SCF Done:  E(RB3LYP) =  -837.740541057     A.U. after   15 cycles
            NFock= 15  Conv=0.95D-08     -V/T= 2.0096

 **********************************************************************

            Population analysis using the SCF density.

 **********************************************************************

 Orbital symmetries:
       Occupied  (A) (A) (A) (A) (A) (A) (A) (A) (A) (A) (A) (A)
                 (A) (A) (A) (A) (A) (A) (A) (A) (A) (A) (A) (A)
                 (A) (A) (A) (A) (A) (A) (A) (A) (A) (A) (A) (A)
                 (A) (A) (A) (A) (A) (A) (A) (A) (A) (A) (A) (A)
                 (A) (A) (A) (A) (A) (A) (A) (A) (A) (A) (A) (A)
                 (A) (A) (A) (A)
       Virtual   (A) (A) (A) (A) (A) (A) (A) (A) (A) (A) (A) (A)
                 (A) (A) (A) (A) (A) (A) (A) (A) (A) (A) (A) (A)
                 (A) (A) (A) (A) (A) (A) (A) (A) (A) (A) (A) (A)
                 (A) (A) (A) (A) (A) (A) (A) (A) (A) (A) (A) (A)
                 (A) (A) (A) (A) (A) (A) (A) (A) (A) (A) (A) (A)
                 (A) (A) (A) (A) (A) (A) (A) (A) (A) (A) (A) (A)
                 (A) (A) (A) (A) (A) (A) (A) (A) (A) (A) (A) (A)
                 (A) (A) (A) (A) (A) (A) (A) (A) (A) (A) (A) (A)
                 (A) (A) (A) (A) (A) (A) (A) (A) (A) (A) (A) (A)
                 (A) (A) (A) (A) (A) (A) (A) (A) (A) (A) (A) (A)
                 (A) (A) (A) (A) (A) (A) (A) (A) (A) (A) (A) (A)
                 (A) (A) (A) (A) (A) (A) (A) (A) (A) (A) (A) (A)
                 (A) (A) (A) (A) (A) (A) (A) (A) (A) (A) (A) (A)
                 (A) (A) (A) (A) (A) (A) (A) (A) (A) (A) (A) (A)
                 (A) (A) (A) (A) (A) (A) (A) (A) (A) (A) (A) (A)
                 (A) (A) (A) (A) (A) (A) (A) (A) (A) (A) (A) (A)
                 (A) (A) (A) (A) (A) (A) (A) (A) (A) (A) (A) (A)
                 (A) (A) (A) (A) (A) (A) (A) (A) (A) (A) (A) (A)
                 (A) (A) (A) (A) (A) (A) (A) (A) (A) (A) (A) (A)
                 (A) (A)
 The electronic state is 1-A.
 Alpha  occ. eigenvalues --  -19.18542 -19.18262 -19.12106 -14.38775 -14.29969
 Alpha  occ. eigenvalues --  -10.31729 -10.25663 -10.23019 -10.22831 -10.21567
 Alpha  occ. eigenvalues --  -10.21473 -10.19418 -10.18680 -10.18519 -10.18437
 Alpha  occ. eigenvalues --  -10.17760 -10.17678 -10.17292  -1.06057  -1.04418
 Alpha  occ. eigenvalues --   -0.99836  -0.97506  -0.90124  -0.84051  -0.80700
 Alpha  occ. eigenvalues --   -0.77619  -0.74234  -0.71157  -0.70441  -0.66949
 Alpha  occ. eigenvalues --   -0.63603  -0.60777  -0.60390  -0.57569  -0.56415
 Alpha  occ. eigenvalues --   -0.53450  -0.51214  -0.48393  -0.48026  -0.47440
 Alpha  occ. eigenvalues --   -0.45266  -0.44483  -0.44237  -0.42810  -0.41834
 Alpha  occ. eigenvalues --   -0.41205  -0.41027  -0.39774  -0.39196  -0.38159
 Alpha  occ. eigenvalues --   -0.37852  -0.36548  -0.36284  -0.35572  -0.34437
 Alpha  occ. eigenvalues --   -0.34275  -0.32748  -0.29226  -0.28286  -0.25869
 Alpha  occ. eigenvalues --   -0.24657  -0.22226  -0.21339  -0.18749
 Alpha virt. eigenvalues --   -0.03062  -0.00079   0.02119   0.03790   0.05042
 Alpha virt. eigenvalues --    0.05751   0.07490   0.07780   0.10295   0.12015
 Alpha virt. eigenvalues --    0.13161   0.14435   0.14815   0.15917   0.17804
 Alpha virt. eigenvalues --    0.18454   0.19433   0.20161   0.20951   0.21998
 Alpha virt. eigenvalues --    0.22240   0.23469   0.25840   0.26649   0.28012
 Alpha virt. eigenvalues --    0.28411   0.30445   0.32313   0.33608   0.37029
 Alpha virt. eigenvalues --    0.37112   0.37666   0.38211   0.41521   0.44254
 Alpha virt. eigenvalues --    0.47666   0.48282   0.50294   0.51836   0.53167
 Alpha virt. eigenvalues --    0.53526   0.53902   0.54044   0.55374   0.56225
 Alpha virt. eigenvalues --    0.57288   0.58083   0.58750   0.59291   0.60422
 Alpha virt. eigenvalues --    0.61107   0.61950   0.62378   0.63347   0.64496
 Alpha virt. eigenvalues --    0.64968   0.65636   0.66191   0.68844   0.69137
 Alpha virt. eigenvalues --    0.70865   0.73647   0.74325   0.75094   0.76203
 Alpha virt. eigenvalues --    0.77131   0.77635   0.79007   0.80370   0.80822
 Alpha virt. eigenvalues --    0.81247   0.81572   0.83201   0.83701   0.84797
 Alpha virt. eigenvalues --    0.85690   0.86514   0.86978   0.88205   0.88740
 Alpha virt. eigenvalues --    0.89749   0.90537   0.92027   0.92346   0.94920
 Alpha virt. eigenvalues --    0.95643   0.96544   0.97677   0.98074   0.99691
 Alpha virt. eigenvalues --    1.00918   1.02265   1.03615   1.03745   1.05615
 Alpha virt. eigenvalues --    1.07482   1.09815   1.10178   1.11321   1.14728
 Alpha virt. eigenvalues --    1.17501   1.18058   1.19171   1.22974   1.23573
 Alpha virt. eigenvalues --    1.25294   1.28591   1.30201   1.31476   1.33341
 Alpha virt. eigenvalues --    1.33919   1.35120   1.35936   1.38388   1.39743
 Alpha virt. eigenvalues --    1.40683   1.41228   1.44506   1.46478   1.47618
 Alpha virt. eigenvalues --    1.47910   1.49267   1.51140   1.53696   1.57465
 Alpha virt. eigenvalues --    1.60283   1.61129   1.63012   1.65819   1.68071
 Alpha virt. eigenvalues --    1.70348   1.72588   1.73678   1.73833   1.74610
 Alpha virt. eigenvalues --    1.76189   1.79118   1.79618   1.80152   1.82125
 Alpha virt. eigenvalues --    1.83041   1.83759   1.85848   1.86533   1.87188
 Alpha virt. eigenvalues --    1.89659   1.91393   1.92599   1.94360   1.95241
 Alpha virt. eigenvalues --    1.96432   1.97406   2.00159   2.00853   2.03052
 Alpha virt. eigenvalues --    2.03627   2.05212   2.06302   2.06779   2.10237
 Alpha virt. eigenvalues --    2.10509   2.11862   2.14011   2.17671   2.19871
 Alpha virt. eigenvalues --    2.21664   2.22084   2.23686   2.24861   2.25650
 Alpha virt. eigenvalues --    2.27059   2.28581   2.30267   2.32212   2.32932
 Alpha virt. eigenvalues --    2.34196   2.34469   2.37394   2.40187   2.42079
 Alpha virt. eigenvalues --    2.44183   2.45490   2.48222   2.48925   2.51422
 Alpha virt. eigenvalues --    2.54089   2.56813   2.58181   2.60046   2.62175
 Alpha virt. eigenvalues --    2.63793   2.66829   2.68284   2.70320   2.71999
 Alpha virt. eigenvalues --    2.72999   2.76729   2.78421   2.80653   2.85311
 Alpha virt. eigenvalues --    2.87065   2.88638   2.94053   2.99169   2.99811
 Alpha virt. eigenvalues --    3.00729   3.03239   3.06635   3.14905   3.23554
 Alpha virt. eigenvalues --    3.37016   3.49604   3.82104   3.93983   4.04216
 Alpha virt. eigenvalues --    4.07763   4.09543   4.13589   4.18105   4.19489
 Alpha virt. eigenvalues --    4.23572   4.27094   4.33752   4.36913   4.40005
 Alpha virt. eigenvalues --    4.44396   4.53487   4.64731   4.68121   4.93624
          Condensed to atoms (all electrons):
               1          2          3          4          5          6
     1  O    8.256472   0.273924  -0.071286   0.000547  -0.000928   0.000019
     2  C    0.273924   4.462439   0.251994  -0.015099  -0.003943   0.000954
     3  C   -0.071286   0.251994   5.189792   0.287353  -0.022629   0.002598
     4  C    0.000547  -0.015099   0.287353   5.257601   0.345057  -0.089167
     5  C   -0.000928  -0.003943  -0.022629   0.345057   5.028877   0.461192
     6  C    0.000019   0.000954   0.002598  -0.089167   0.461192   5.084607
     7  N    0.000001  -0.000126  -0.000039   0.006240  -0.051280   0.313328
     8  C   -0.000233  -0.000180  -0.000457   0.015777   0.018704  -0.177428
     9  C    0.000023   0.000029  -0.000003  -0.000364   0.020993   0.005819
    10  O   -0.000000   0.000000  -0.000000   0.000000  -0.000159   0.000183
    11  C   -0.000012  -0.000018   0.000003   0.000036  -0.000499  -0.000154
    12  C   -0.000433  -0.000045  -0.000047  -0.000406   0.013903  -0.000356
    13  C    0.001240   0.001247  -0.007235  -0.023042  -0.136736   0.022812
    14  C    0.002817  -0.004291  -0.056786   0.003587  -0.022452  -0.000329
    15  C   -0.000219  -0.000267   0.007888  -0.000529   0.000079   0.000005
    16  N    0.000777  -0.036259   0.241007  -0.048390  -0.002899   0.000194
    17  C    0.000878  -0.001314  -0.004145  -0.064428   0.394072   0.050780
    18  O   -0.081594   0.499969  -0.065293  -0.000503  -0.001367  -0.000159
    19  H    0.214780  -0.003926   0.006468  -0.000153   0.000049   0.000003
    20  H    0.001385  -0.047465   0.386734  -0.039260   0.005345  -0.000127
    21  H    0.000099  -0.004608  -0.023051   0.339098  -0.029653  -0.007258
    22  H   -0.000042   0.005729  -0.041339   0.365448  -0.034074  -0.000176
    23  H    0.000000  -0.000019   0.000053  -0.003588  -0.028689   0.361294
    24  H   -0.000000   0.000000   0.000002  -0.000076   0.003137  -0.028816
    25  H    0.000000   0.000000   0.000000  -0.000000   0.000007   0.000002
    26  H   -0.000000  -0.000000   0.000000   0.000000   0.000009   0.000003
    27  H   -0.000008  -0.000003  -0.000005  -0.000002  -0.000203   0.000006
    28  H    0.000130   0.000034  -0.000167   0.000002  -0.000011  -0.000000
    29  H    0.000000   0.000001  -0.000212   0.000015   0.000048   0.000000
    30  H    0.000002   0.000021  -0.000127   0.000055  -0.000020  -0.000000
               7          8          9         10         11         12
     1  O    0.000001  -0.000233   0.000023  -0.000000  -0.000012  -0.000433
     2  C   -0.000126  -0.000180   0.000029   0.000000  -0.000018  -0.000045
     3  C   -0.000039  -0.000457  -0.000003  -0.000000   0.000003  -0.000047
     4  C    0.006240   0.015777  -0.000364   0.000000   0.000036  -0.000406
     5  C   -0.051280   0.018704   0.020993  -0.000159  -0.000499   0.013903
     6  C    0.313328  -0.177428   0.005819   0.000183  -0.000154  -0.000356
     7  N    7.048535   0.255389  -0.108964  -0.001116   0.008038  -0.000748
     8  C    0.255389   5.007274   0.387177  -0.044112  -0.029885  -0.062710
     9  C   -0.108964   0.387177   4.777129   0.254599   0.475876   0.011824
    10  O   -0.001116  -0.044112   0.254599   8.311063  -0.065839   0.004191
    11  C    0.008038  -0.029885   0.475876  -0.065839   5.145627   0.427053
    12  C   -0.000748  -0.062710   0.011824   0.004191   0.427053   5.137673
    13  C    0.013788  -0.063527  -0.063778   0.000334  -0.007884   0.439921
    14  C   -0.000062   0.009931  -0.000421   0.000001   0.005938  -0.063074
    15  C    0.000001  -0.000154   0.000011  -0.000000   0.000053  -0.009732
    16  N    0.000005  -0.000226  -0.000013  -0.000000  -0.000130   0.006859
    17  C   -0.066454   0.396587  -0.030179   0.002904  -0.050953  -0.006518
    18  O    0.000000   0.000018   0.000000   0.000000   0.000000  -0.000000
    19  H   -0.000001  -0.000028  -0.000001   0.000000  -0.000003   0.000086
    20  H    0.000000   0.000003  -0.000000   0.000000  -0.000000   0.000008
    21  H    0.000027   0.000068   0.000004  -0.000000  -0.000000   0.000008
    22  H   -0.000047  -0.000197   0.000009  -0.000000  -0.000002  -0.000001
    23  H   -0.050020   0.005253  -0.000186  -0.000000   0.000004   0.000003
    24  H    0.322883  -0.029453  -0.007388   0.005484   0.000105  -0.000037
    25  H   -0.000303   0.004188  -0.024072   0.238603  -0.004032   0.000421
    26  H   -0.000118   0.004357  -0.040660  -0.005161   0.346369  -0.032441
    27  H    0.000006   0.000935   0.003253  -0.000054  -0.039362   0.351163
    28  H   -0.000000   0.000008  -0.000002  -0.000000   0.000071  -0.000389
    29  H    0.000000  -0.000057   0.000012   0.000000  -0.000124   0.001609
    30  H   -0.000000   0.000003  -0.000000  -0.000000   0.000002   0.000068
              13         14         15         16         17         18
     1  O    0.001240   0.002817  -0.000219   0.000777   0.000878  -0.081594
     2  C    0.001247  -0.004291  -0.000267  -0.036259  -0.001314   0.499969
     3  C   -0.007235  -0.056786   0.007888   0.241007  -0.004145  -0.065293
     4  C   -0.023042   0.003587  -0.000529  -0.048390  -0.064428  -0.000503
     5  C   -0.136736  -0.022452   0.000079  -0.002899   0.394072  -0.001367
     6  C    0.022812  -0.000329   0.000005   0.000194   0.050780  -0.000159
     7  N    0.013788  -0.000062   0.000001   0.000005  -0.066454   0.000000
     8  C   -0.063527   0.009931  -0.000154  -0.000226   0.396587   0.000018
     9  C   -0.063778  -0.000421   0.000011  -0.000013  -0.030179   0.000000
    10  O    0.000334   0.000001  -0.000000  -0.000000   0.002904   0.000000
    11  C   -0.007884   0.005938   0.000053  -0.000130  -0.050953   0.000000
    12  C    0.439921  -0.063074  -0.009732   0.006859  -0.006518  -0.000000
    13  C    5.145963   0.311187  -0.092298  -0.040792   0.416068  -0.000064
    14  C    0.311187   4.778878   0.354355   0.553932  -0.038204   0.000058
    15  C   -0.092298   0.354355   5.255387  -0.083877   0.003462   0.000001
    16  N   -0.040792   0.553932  -0.083877   6.911665  -0.021205   0.002778
    17  C    0.416068  -0.038204   0.003462  -0.021205   4.961652  -0.000574
    18  O   -0.000064   0.000058   0.000001   0.002778  -0.000574   8.125690
    19  H    0.000249  -0.000143  -0.000003  -0.000352   0.000078   0.005824
    20  H   -0.000257   0.002160  -0.000040  -0.052132   0.000393  -0.000366
    21  H   -0.000145  -0.000014   0.000009   0.004907   0.004084   0.005882
    22  H    0.002033   0.000673  -0.000219  -0.004323  -0.004552   0.000029
    23  H   -0.000192   0.000001  -0.000000   0.000001   0.004508  -0.000007
    24  H    0.000038   0.000002  -0.000000  -0.000000   0.006632  -0.000000
    25  H   -0.000047  -0.000000   0.000000   0.000000   0.000012   0.000000
    26  H    0.002964  -0.000125   0.000001   0.000001   0.001087   0.000000
    27  H   -0.031840  -0.011241   0.006889   0.000060   0.003480  -0.000000
    28  H    0.001452  -0.025809   0.357487  -0.002739   0.000103  -0.000000
    29  H    0.006207  -0.031146   0.349124   0.002570  -0.000190   0.000000
    30  H    0.004044  -0.022655   0.353169   0.007213  -0.000021  -0.000000
              19         20         21         22         23         24
     1  O    0.214780   0.001385   0.000099  -0.000042   0.000000  -0.000000
     2  C   -0.003926  -0.047465  -0.004608   0.005729  -0.000019   0.000000
     3  C    0.006468   0.386734  -0.023051  -0.041339   0.000053   0.000002
     4  C   -0.000153  -0.039260   0.339098   0.365448  -0.003588  -0.000076
     5  C    0.000049   0.005345  -0.029653  -0.034074  -0.028689   0.003137
     6  C    0.000003  -0.000127  -0.007258  -0.000176   0.361294  -0.028816
     7  N   -0.000001   0.000000   0.000027  -0.000047  -0.050020   0.322883
     8  C   -0.000028   0.000003   0.000068  -0.000197   0.005253  -0.029453
     9  C   -0.000001  -0.000000   0.000004   0.000009  -0.000186  -0.007388
    10  O    0.000000   0.000000  -0.000000  -0.000000  -0.000000   0.005484
    11  C   -0.000003  -0.000000  -0.000000  -0.000002   0.000004   0.000105
    12  C    0.000086   0.000008   0.000008  -0.000001   0.000003  -0.000037
    13  C    0.000249  -0.000257  -0.000145   0.002033  -0.000192   0.000038
    14  C   -0.000143   0.002160  -0.000014   0.000673   0.000001   0.000002
    15  C   -0.000003  -0.000040   0.000009  -0.000219  -0.000000  -0.000000
    16  N   -0.000352  -0.052132   0.004907  -0.004323   0.000001  -0.000000
    17  C    0.000078   0.000393   0.004084  -0.004552   0.004508   0.006632
    18  O    0.005824  -0.000366   0.005882   0.000029  -0.000007  -0.000000
    19  H    0.358996  -0.000163  -0.000009   0.000003   0.000000   0.000000
    20  H   -0.000163   0.564903  -0.001049  -0.003458   0.000004  -0.000000
    21  H   -0.000009  -0.001049   0.586419  -0.034019   0.003881  -0.000009
    22  H    0.000003  -0.003458  -0.034019   0.583640   0.000039   0.000003
    23  H    0.000000   0.000004   0.003881   0.000039   0.561116  -0.002094
    24  H    0.000000  -0.000000  -0.000009   0.000003  -0.002094   0.380656
    25  H    0.000000  -0.000000   0.000000   0.000000  -0.000000  -0.000235
    26  H   -0.000000   0.000000   0.000000  -0.000000  -0.000000  -0.000000
    27  H   -0.000000   0.000000  -0.000000   0.000000  -0.000000   0.000000
    28  H    0.000001   0.000000   0.000000   0.000003   0.000000   0.000000
    29  H    0.000000   0.000001  -0.000001   0.000007  -0.000000   0.000000
    30  H    0.000000  -0.000058  -0.000001   0.000023   0.000000   0.000000
              25         26         27         28         29         30
     1  O    0.000000  -0.000000  -0.000008   0.000130   0.000000   0.000002
     2  C    0.000000  -0.000000  -0.000003   0.000034   0.000001   0.000021
     3  C    0.000000   0.000000  -0.000005  -0.000167  -0.000212  -0.000127
     4  C   -0.000000   0.000000  -0.000002   0.000002   0.000015   0.000055
     5  C    0.000007   0.000009  -0.000203  -0.000011   0.000048  -0.000020
     6  C    0.000002   0.000003   0.000006  -0.000000   0.000000  -0.000000
     7  N   -0.000303  -0.000118   0.000006  -0.000000   0.000000  -0.000000
     8  C    0.004188   0.004357   0.000935   0.000008  -0.000057   0.000003
     9  C   -0.024072  -0.040660   0.003253  -0.000002   0.000012  -0.000000
    10  O    0.238603  -0.005161  -0.000054  -0.000000   0.000000  -0.000000
    11  C   -0.004032   0.346369  -0.039362   0.000071  -0.000124   0.000002
    12  C    0.000421  -0.032441   0.351163  -0.000389   0.001609   0.000068
    13  C   -0.000047   0.002964  -0.031840   0.001452   0.006207   0.004044
    14  C   -0.000000  -0.000125  -0.011241  -0.025809  -0.031146  -0.022655
    15  C    0.000000   0.000001   0.006889   0.357487   0.349124   0.353169
    16  N    0.000000   0.000001   0.000060  -0.002739   0.002570   0.007213
    17  C    0.000012   0.001087   0.003480   0.000103  -0.000190  -0.000021
    18  O    0.000000   0.000000  -0.000000  -0.000000   0.000000  -0.000000
    19  H    0.000000  -0.000000  -0.000000   0.000001   0.000000   0.000000
    20  H   -0.000000   0.000000   0.000000   0.000000   0.000001  -0.000058
    21  H    0.000000   0.000000  -0.000000   0.000000  -0.000001  -0.000001
    22  H    0.000000  -0.000000   0.000000   0.000003   0.000007   0.000023
    23  H   -0.000000  -0.000000  -0.000000   0.000000  -0.000000   0.000000
    24  H   -0.000235  -0.000000   0.000000   0.000000   0.000000   0.000000
    25  H    0.363821   0.004813  -0.000008  -0.000000  -0.000000  -0.000000
    26  H    0.004813   0.613174  -0.005297  -0.000001  -0.000007  -0.000000
    27  H   -0.000008  -0.005297   0.593914   0.001534   0.000885  -0.000092
    28  H   -0.000000  -0.000001   0.001534   0.555894  -0.030303  -0.021273
    29  H   -0.000000  -0.000007   0.000885  -0.030303   0.574562  -0.023937
    30  H   -0.000000  -0.000000  -0.000092  -0.021273  -0.023937   0.530404
 Mulliken charges:
               1
     1  O   -0.598339
     2  C    0.621220
     3  C   -0.081072
     4  C   -0.335810
     5  C    0.044071
     6  C    0.000173
     7  N   -0.688964
     8  C    0.302974
     9  C    0.339271
    10  O   -0.700922
    11  C   -0.210277
    12  C   -0.217853
    13  C    0.098291
    14  C    0.253233
    15  C   -0.500580
    16  N   -0.438633
    17  C    0.041959
    18  O   -0.490320
    19  H    0.418245
    20  H    0.183440
    21  H    0.155331
    22  H    0.164810
    23  H    0.148637
    24  H    0.349168
    25  H    0.416832
    26  H    0.111033
    27  H    0.125991
    28  H    0.163977
    29  H    0.150933
    30  H    0.173181
 Sum of Mulliken charges =  -0.00000
 Mulliken charges with hydrogens summed into heavy atoms:
               1
     1  O   -0.180094
     2  C    0.621220
     3  C    0.102368
     4  C   -0.015668
     5  C    0.044071
     6  C    0.148810
     7  N   -0.339795
     8  C    0.302974
     9  C    0.339271
    10  O   -0.284090
    11  C   -0.099244
    12  C   -0.091862
    13  C    0.098291
    14  C    0.253233
    15  C   -0.012490
    16  N   -0.438633
    17  C    0.041959
    18  O   -0.490320
 Electronic spatial extent (au):  <R**2>=           3809.6073
 Charge=              0.0000 electrons
 Dipole moment (field-independent basis, Debye):
    X=              4.9137    Y=              0.3105    Z=              0.3770  Tot=              4.9379
 Quadrupole moment (field-independent basis, Debye-Ang):
   XX=            -93.4849   YY=            -96.1007   ZZ=            -97.0311
   XY=             -2.6596   XZ=              5.7584   YZ=              8.6032
 Traceless Quadrupole moment (field-independent basis, Debye-Ang):
   XX=              2.0540   YY=             -0.5618   ZZ=             -1.4922
   XY=             -2.6596   XZ=              5.7584   YZ=              8.6032
 Octapole moment (field-independent basis, Debye-Ang**2):
  XXX=            102.7738  YYY=            -10.9070  ZZZ=             45.6952  XYY=             37.1847
  XXY=              6.8365  XXZ=             21.6821  XZZ=             -3.1781  YZZ=              1.7978
  YYZ=            -13.1107  XYZ=             -3.5481
 Hexadecapole moment (field-independent basis, Debye-Ang**3):
 XXXX=          -2201.1760 YYYY=          -1530.4137 ZZZZ=           -535.1116 XXXY=             70.6686
 XXXZ=            123.5583 YYYX=            -95.0514 YYYZ=             55.3140 ZZZX=            -46.4770
 ZZZY=             -1.3984 XXYY=           -692.4741 XXZZ=           -523.2294 YYZZ=           -392.7749
 XXYZ=             74.1331 YYXZ=             25.3488 ZZXY=            -10.1691
 N-N= 1.332923458162D+03 E-N=-4.618499039601D+03  KE= 8.297512631384D+02
 Calling FoFJK, ICntrl=      2127 FMM=F ISym2X=0 I1Cent= 0 IOpClX= 0 NMat=1 NMatS=1 NMatT=0.
 ***** Axes restored to original set *****
 -------------------------------------------------------------------
 Center     Atomic                   Forces (Hartrees/Bohr)
 Number     Number              X              Y              Z
 -------------------------------------------------------------------
      1        8           0.001581125   -0.005203514    0.014563555
      2        6          -0.028402109    0.066805620   -0.080027536
      3        6           0.013410209   -0.036234582    0.007011306
      4        6           0.004341541    0.018980827    0.003929991
      5        6          -0.010543184    0.045537519    0.014666819
      6        6          -0.033168112    0.011699198    0.018351038
      7        7           0.025935836    0.037064968   -0.005609580
      8        6           0.053446634   -0.018926477   -0.034537822
      9        6           0.028090951   -0.037693442   -0.024378504
     10        8           0.009400553    0.008220211   -0.003473169
     11        6          -0.007809677    0.009340210    0.005128863
     12        6          -0.002498421    0.015858265    0.007807554
     13        6           0.011039198   -0.037265586   -0.005657052
     14        6          -0.021220441    0.045739513   -0.009838066
     15        6           0.001940988   -0.010692613    0.008764390
     16        7           0.004559716   -0.024236061    0.013320019
     17        6          -0.015921047   -0.029280479    0.000776704
     18        8           0.022074670   -0.054074358    0.024334674
     19        1          -0.004553912    0.017496343    0.040821745
     20        1           0.006533969   -0.002926840   -0.007721685
     21        1           0.002919863   -0.009271575    0.001528279
     22        1          -0.008982630   -0.000709972   -0.008375174
     23        1           0.004351404    0.001565959   -0.002638029
     24        1          -0.020719153   -0.020993909    0.007945610
     25        1          -0.038098849    0.006888677    0.023835879
     26        1           0.002626144   -0.000623215   -0.002086346
     27        1          -0.001278235   -0.002038661    0.001362009
     28        1           0.003506997    0.001771110    0.007667441
     29        1          -0.008238694   -0.000754343   -0.006209638
     30        1           0.005674667    0.003957208   -0.011263276
 -------------------------------------------------------------------
 Cartesian Forces:  Max     0.080027536 RMS     0.022063133

 GradGradGradGradGradGradGradGradGradGradGradGradGradGradGradGradGradGrad
 Berny optimization.
 FormGI is forming the generalized inverse of G from B-inverse, IUseBI=4.
 Internal  Forces:  Max     0.063183323 RMS     0.012453496
 Search for a local minimum.
 Step number   1 out of a maximum of  176
 All quantities printed in internal units (Hartrees-Bohrs-Radians)
 Mixed Optimization -- RFO/linear search
 Second derivative matrix not updated -- first step.
 ITU=  0
     Eigenvalues ---    0.00636   0.00749   0.00835   0.00927   0.01093
     Eigenvalues ---    0.01436   0.01557   0.01651   0.01785   0.01791
     Eigenvalues ---    0.01798   0.01896   0.01967   0.01987   0.02054
     Eigenvalues ---    0.02131   0.02183   0.02283   0.02302   0.02332
     Eigenvalues ---    0.02385   0.04129   0.05091   0.05396   0.06798
     Eigenvalues ---    0.07358   0.07395   0.07789   0.09314   0.09669
     Eigenvalues ---    0.15991   0.15997   0.16000   0.16000   0.16000
     Eigenvalues ---    0.16000   0.16000   0.16000   0.16000   0.16318
     Eigenvalues ---    0.17386   0.21762   0.22543   0.22908   0.24522
     Eigenvalues ---    0.24690   0.24781   0.24940   0.24991   0.24994
     Eigenvalues ---    0.25000   0.25000   0.27722   0.31372   0.31651
     Eigenvalues ---    0.32240   0.32381   0.32460   0.32470   0.32487
     Eigenvalues ---    0.32539   0.32605   0.32752   0.34825   0.35689
     Eigenvalues ---    0.35722   0.35766   0.37767   0.40156   0.40676
     Eigenvalues ---    0.42755   0.43472   0.43771   0.44480   0.45438
     Eigenvalues ---    0.45506   0.46116   0.46804   0.46886   0.48226
     Eigenvalues ---    0.52979   0.54377   0.63574   0.79480
 RFO step:  Lambda=-6.39963178D-02 EMin= 6.36495736D-03
 Linear search not attempted -- first point.
 Maximum step size (   0.300) exceeded in Quadratic search.
    -- Step size scaled by   0.705
 Iteration  1 RMS(Cart)=  0.04276389 RMS(Int)=  0.00162301
 Iteration  2 RMS(Cart)=  0.00157297 RMS(Int)=  0.00014658
 Iteration  3 RMS(Cart)=  0.00000376 RMS(Int)=  0.00014656
 Iteration  4 RMS(Cart)=  0.00000000 RMS(Int)=  0.00014656
 Variable       Old X    -DE/DX   Delta X   Delta X   Delta X     New X
                                 (Linear)    (Quad)   (Total)
    R1        2.63145  -0.04565   0.00000  -0.06044  -0.06044   2.57101
    R2        1.91392  -0.03719   0.00000  -0.05054  -0.05054   1.86338
    R3        2.85308   0.00500   0.00000   0.00934   0.00934   2.86242
    R4        2.38197  -0.06318   0.00000  -0.05190  -0.05190   2.33007
    R5        2.90470   0.00698   0.00000   0.01141   0.01144   2.91614
    R6        2.76862   0.00113   0.00000  -0.00285  -0.00285   2.76577
    R7        2.09963  -0.00945   0.00000  -0.01714  -0.01714   2.08249
    R8        2.82337   0.00221   0.00000   0.00601   0.00607   2.82944
    R9        2.10153  -0.00972   0.00000  -0.01768  -0.01768   2.08385
   R10        2.09992  -0.00884   0.00000  -0.01604  -0.01604   2.08388
   R11        2.62529  -0.00378   0.00000  -0.00739  -0.00754   2.61775
   R12        2.60719   0.04325   0.00000   0.05994   0.05992   2.66711
   R13        2.55152   0.03221   0.00000   0.03451   0.03447   2.58600
   R14        2.04518  -0.00014   0.00000  -0.00023  -0.00023   2.04495
   R15        2.54209   0.03178   0.00000   0.03649   0.03662   2.57871
   R16        1.97345  -0.03035   0.00000  -0.04548  -0.04548   1.92796
   R17        2.63133   0.00250   0.00000   0.00444   0.00445   2.63578
   R18        2.59925   0.02884   0.00000   0.04196   0.04208   2.64133
   R19        2.63235  -0.02642   0.00000  -0.03503  -0.03503   2.59732
   R20        2.65537  -0.00865   0.00000  -0.01392  -0.01392   2.64146
   R21        1.91470  -0.04047   0.00000  -0.05507  -0.05507   1.85963
   R22        2.66515   0.00130   0.00000  -0.00130  -0.00130   2.66384
   R23        2.04571   0.00303   0.00000   0.00508   0.00508   2.05078
   R24        2.68015  -0.01273   0.00000  -0.01950  -0.01950   2.66065
   R25        2.04450   0.00209   0.00000   0.00349   0.00349   2.04799
   R26        2.82983  -0.00588   0.00000  -0.01052  -0.01058   2.81925
   R27        2.65548   0.00569   0.00000   0.01338   0.01336   2.66884
   R28        2.83706   0.00525   0.00000   0.00959   0.00959   2.84665
   R29        2.46770  -0.02237   0.00000  -0.02430  -0.02435   2.44335
   R30        2.09751  -0.00782   0.00000  -0.01414  -0.01414   2.08337
   R31        2.09869  -0.00948   0.00000  -0.01718  -0.01718   2.08150
   R32        2.10011  -0.01255   0.00000  -0.02279  -0.02279   2.07732
    A1        2.10992  -0.04728   0.00000  -0.14891  -0.14891   1.96100
    A2        2.10445  -0.02519   0.00000  -0.05661  -0.05661   2.04784
    A3        2.08694   0.01649   0.00000   0.03705   0.03705   2.12399
    A4        2.09131   0.00869   0.00000   0.01951   0.01951   2.11083
    A5        1.98003  -0.01263   0.00000  -0.03115  -0.03188   1.94815
    A6        1.95220   0.00976   0.00000   0.03795   0.03831   1.99051
    A7        1.85809  -0.00219   0.00000  -0.02460  -0.02480   1.83329
    A8        1.93722   0.00776   0.00000   0.02608   0.02610   1.96332
    A9        1.86503   0.00205   0.00000   0.00326   0.00278   1.86781
   A10        1.86338  -0.00528   0.00000  -0.01511  -0.01491   1.84847
   A11        1.95152   0.00278   0.00000   0.00178   0.00153   1.95305
   A12        1.90527   0.00084   0.00000   0.00189   0.00193   1.90720
   A13        1.91613  -0.00844   0.00000  -0.02977  -0.02971   1.88642
   A14        1.90787   0.00015   0.00000   0.00771   0.00765   1.91552
   A15        1.90303   0.00425   0.00000   0.02011   0.02025   1.92328
   A16        1.87857   0.00037   0.00000  -0.00174  -0.00201   1.87656
   A17        2.20530   0.00943   0.00000   0.01436   0.01443   2.21973
   A18        2.22016  -0.01298   0.00000  -0.01991  -0.01978   2.20037
   A19        1.85638   0.00358   0.00000   0.00566   0.00545   1.86183
   A20        1.92354  -0.00304   0.00000  -0.01189  -0.01208   1.91146
   A21        2.19566   0.00694   0.00000   0.02307   0.02315   2.21881
   A22        2.16367  -0.00387   0.00000  -0.01102  -0.01094   2.15273
   A23        1.85114   0.01389   0.00000   0.03512   0.03518   1.88632
   A24        2.20993  -0.00355   0.00000  -0.00686  -0.00689   2.20304
   A25        2.22199  -0.01035   0.00000  -0.02829  -0.02832   2.19367
   A26        2.21640   0.02122   0.00000   0.03785   0.03775   2.25415
   A27        1.94107  -0.01977   0.00000  -0.03964  -0.03943   1.90163
   A28        2.12562  -0.00146   0.00000   0.00177   0.00168   2.12730
   A29        2.10830  -0.01600   0.00000  -0.03680  -0.03681   2.07149
   A30        2.05614  -0.00128   0.00000  -0.00118  -0.00117   2.05497
   A31        2.11874   0.01728   0.00000   0.03798   0.03798   2.15672
   A32        2.11813  -0.03969   0.00000  -0.12500  -0.12500   1.99312
   A33        2.10338   0.00321   0.00000   0.00222   0.00221   2.10559
   A34        2.09432  -0.00317   0.00000  -0.00605  -0.00605   2.08827
   A35        2.08548  -0.00003   0.00000   0.00383   0.00383   2.08931
   A36        2.11663   0.00685   0.00000   0.01290   0.01288   2.12952
   A37        2.06001  -0.00182   0.00000  -0.00138  -0.00138   2.05863
   A38        2.10654  -0.00503   0.00000  -0.01152  -0.01152   2.09502
   A39        2.10150   0.00711   0.00000   0.01023   0.01030   2.11180
   A40        2.02977   0.00010   0.00000   0.00184   0.00192   2.03170
   A41        2.15022  -0.00713   0.00000  -0.01174  -0.01191   2.13831
   A42        2.08304  -0.01102   0.00000  -0.02384  -0.02384   2.05920
   A43        2.16074   0.01978   0.00000   0.04297   0.04297   2.20371
   A44        2.03879  -0.00877   0.00000  -0.01893  -0.01894   2.01985
   A45        1.91409   0.00385   0.00000   0.01057   0.01056   1.92465
   A46        1.92571   0.00390   0.00000   0.01340   0.01339   1.93910
   A47        1.93213  -0.00464   0.00000  -0.01413  -0.01410   1.91803
   A48        1.91297  -0.00459   0.00000  -0.01535  -0.01540   1.89756
   A49        1.89581  -0.00101   0.00000  -0.00529  -0.00527   1.89054
   A50        1.88262   0.00230   0.00000   0.01029   0.01033   1.89295
   A51        2.26075  -0.00817   0.00000  -0.03012  -0.03002   2.23073
   A52        1.85251   0.00536   0.00000   0.01089   0.01096   1.86348
   A53        2.29591   0.00205   0.00000   0.00667   0.00657   2.30248
   A54        2.13467  -0.00741   0.00000  -0.01751  -0.01750   2.11717
    D1        3.13255  -0.00006   0.00000  -0.00019  -0.00020   3.13235
    D2        0.02440   0.00015   0.00000   0.00099   0.00100   0.02540
    D3        2.09440   0.00528   0.00000   0.02890   0.02849   2.12289
    D4       -0.11329  -0.00311   0.00000  -0.01286  -0.01288  -0.12618
    D5       -2.14251  -0.00063   0.00000  -0.00016   0.00025  -2.14226
    D6       -1.08072   0.00522   0.00000   0.02805   0.02765  -1.05307
    D7        2.99478  -0.00317   0.00000  -0.01371  -0.01372   2.98106
    D8        0.96556  -0.00069   0.00000  -0.00101  -0.00059   0.96497
    D9       -0.92874  -0.00731   0.00000  -0.04169  -0.04144  -0.97018
   D10        1.18451  -0.00476   0.00000  -0.02958  -0.02949   1.15502
   D11       -3.04328  -0.00873   0.00000  -0.04791  -0.04771  -3.09099
   D12        1.28683   0.00219   0.00000   0.00632   0.00634   1.29318
   D13       -2.88311   0.00474   0.00000   0.01843   0.01830  -2.86481
   D14       -0.82771   0.00077   0.00000   0.00011   0.00008  -0.82763
   D15       -2.97097   0.00115   0.00000   0.00386   0.00400  -2.96697
   D16       -0.85772   0.00369   0.00000   0.01597   0.01595  -0.84177
   D17        1.19767  -0.00028   0.00000  -0.00236  -0.00226   1.19541
   D18        1.18935  -0.00369   0.00000   0.00625   0.00703   1.19637
   D19       -1.04142  -0.00079   0.00000  -0.00325  -0.00357  -1.04500
   D20       -3.06783  -0.00426   0.00000  -0.01210  -0.01180  -3.07963
   D21        2.44982   0.00379   0.00000   0.00812   0.00811   2.45793
   D22       -0.62819   0.00287   0.00000   0.00544   0.00552  -0.62266
   D23        0.33808   0.00084   0.00000  -0.00063  -0.00057   0.33751
   D24       -2.73993  -0.00009   0.00000  -0.00331  -0.00316  -2.74308
   D25       -1.71125  -0.00213   0.00000  -0.01447  -0.01458  -1.72582
   D26        1.49393  -0.00306   0.00000  -0.01715  -0.01716   1.47677
   D27       -3.07766  -0.00213   0.00000  -0.01134  -0.01118  -3.08883
   D28        0.03753  -0.00085   0.00000  -0.00489  -0.00473   0.03279
   D29        0.01117  -0.00193   0.00000  -0.01000  -0.00987   0.00130
   D30        3.12635  -0.00066   0.00000  -0.00355  -0.00342   3.12293
   D31        3.07274   0.00272   0.00000   0.01116   0.01113   3.08387
   D32       -0.05388   0.00249   0.00000   0.00779   0.00773  -0.04615
   D33       -0.01549   0.00163   0.00000   0.00843   0.00850  -0.00700
   D34        3.14108   0.00140   0.00000   0.00506   0.00509  -3.13702
   D35       -0.00198   0.00125   0.00000   0.00704   0.00708   0.00509
   D36        3.12388   0.00090   0.00000   0.00482   0.00477   3.12865
   D37       -3.11775  -0.00019   0.00000   0.00011   0.00030  -3.11745
   D38        0.00811  -0.00055   0.00000  -0.00211  -0.00200   0.00611
   D39        3.11863  -0.00040   0.00000  -0.00220  -0.00222   3.11642
   D40       -0.00824  -0.00009   0.00000  -0.00131  -0.00133  -0.00957
   D41       -0.00709  -0.00013   0.00000  -0.00021  -0.00018  -0.00727
   D42       -3.13396   0.00019   0.00000   0.00067   0.00071  -3.13325
   D43        0.01115   0.00052   0.00000   0.00114   0.00115   0.01229
   D44       -3.12705   0.00046   0.00000   0.00047   0.00050  -3.12655
   D45        3.13659   0.00006   0.00000  -0.00010  -0.00009   3.13650
   D46       -0.00161   0.00000   0.00000  -0.00077  -0.00074  -0.00235
   D47        0.01513  -0.00119   0.00000  -0.00495  -0.00485   0.01027
   D48       -3.13973  -0.00090   0.00000  -0.00174  -0.00167  -3.14139
   D49       -3.11263  -0.00113   0.00000  -0.00450  -0.00443  -3.11706
   D50        0.01570  -0.00084   0.00000  -0.00129  -0.00125   0.01445
   D51       -3.13992  -0.00001   0.00000  -0.00030  -0.00029  -3.14021
   D52       -0.00184   0.00001   0.00000   0.00031   0.00031  -0.00153
   D53       -0.00836   0.00018   0.00000  -0.00112  -0.00112  -0.00948
   D54        3.13777  -0.00004   0.00000  -0.00009  -0.00009   3.13768
   D55        3.13665   0.00019   0.00000  -0.00164  -0.00164   3.13501
   D56       -0.00041  -0.00003   0.00000  -0.00061  -0.00061  -0.00102
   D57        0.00484   0.00040   0.00000   0.00491   0.00491   0.00976
   D58       -3.13968  -0.00027   0.00000   0.00159   0.00160  -3.13808
   D59       -3.14126   0.00061   0.00000   0.00386   0.00386  -3.13740
   D60       -0.00260  -0.00006   0.00000   0.00054   0.00055  -0.00206
   D61       -3.07272  -0.00225   0.00000  -0.01183  -0.01178  -3.08451
   D62        0.00831  -0.00101   0.00000  -0.00635  -0.00632   0.00199
   D63        0.07188  -0.00157   0.00000  -0.00844  -0.00842   0.06346
   D64       -3.13027  -0.00033   0.00000  -0.00296  -0.00296  -3.13322
   D65        0.41928  -0.00098   0.00000  -0.00969  -0.00972   0.40956
   D66       -2.68339  -0.00038   0.00000  -0.01553  -0.01579  -2.69918
   D67       -2.65743  -0.00262   0.00000  -0.01612  -0.01608  -2.67351
   D68        0.52309  -0.00203   0.00000  -0.02196  -0.02215   0.50094
   D69        3.10604   0.00170   0.00000   0.00888   0.00877   3.11481
   D70       -0.01853   0.00134   0.00000   0.00481   0.00471  -0.01382
   D71       -0.09797   0.00354   0.00000   0.01539   0.01518  -0.08279
   D72        3.06064   0.00318   0.00000   0.01131   0.01113   3.07177
   D73       -1.40000   0.00015   0.00000   0.00009   0.00006  -1.39994
   D74        0.70887  -0.00057   0.00000  -0.00363  -0.00360   0.70527
   D75        2.79156   0.00185   0.00000   0.00876   0.00876   2.80032
   D76        1.70536   0.00024   0.00000   0.00692   0.00689   1.71225
   D77       -2.46896  -0.00048   0.00000   0.00320   0.00324  -2.46573
   D78       -0.38627   0.00194   0.00000   0.01559   0.01559  -0.37068
   D79       -0.01051  -0.00248   0.00000   0.00577   0.00602  -0.00449
   D80       -3.11409  -0.00183   0.00000   0.00021   0.00022  -3.11388
         Item               Value     Threshold  Converged?
 Maximum Force            0.063183     0.000450     NO 
 RMS     Force            0.012453     0.000300     NO 
 Maximum Displacement     0.285270     0.001800     NO 
 RMS     Displacement     0.042918     0.001200     NO 
 Predicted change in Energy=-3.244538D-02
 GradGradGradGradGradGradGradGradGradGradGradGradGradGradGradGradGradGrad

                          Input orientation:                          
 ---------------------------------------------------------------------
 Center     Atomic      Atomic             Coordinates (Angstroms)
 Number     Number       Type             X           Y           Z
 ---------------------------------------------------------------------
      1          8           0       -2.170330   -0.180502   -1.628491
      2          6           0       -2.497302    0.814616   -0.760252
      3          6           0       -2.350853    0.523043    0.718918
      4          6           0       -1.386055    1.515451    1.401280
      5          6           0       -0.044820    1.537336    0.736116
      6          6           0        0.754010    2.643909    0.498835
      7          7           0        1.872344    2.261102   -0.190689
      8          6           0        1.797375    0.915641   -0.405715
      9          6           0        2.684943    0.081632   -1.085498
     10          8           0        3.822262    0.630653   -1.627882
     11          6           0        2.361156   -1.274934   -1.178928
     12          6           0        1.180650   -1.773878   -0.591934
     13          6           0        0.279009   -0.939690    0.096182
     14          6           0       -0.926708   -1.502605    0.770780
     15          6           0       -0.899299   -2.954483    1.171383
     16          7           0       -2.026713   -0.871496    1.022683
     17          6           0        0.618379    0.429425    0.166316
     18          8           0       -2.931581    1.899906   -1.152534
     19          1           0       -2.300646    0.084678   -2.569239
     20          1           0       -3.351198    0.700547    1.145787
     21          1           0       -1.828467    2.525341    1.381253
     22          1           0       -1.281920    1.219573    2.458469
     23          1           0        0.550861    3.668719    0.780835
     24          1           0        2.625071    2.873230   -0.506247
     25          1           0        4.400096   -0.016035   -2.092970
     26          1           0        3.027991   -1.951085   -1.704161
     27          1           0        0.974095   -2.833409   -0.688074
     28          1           0       -1.116875   -3.595131    0.300936
     29          1           0        0.084645   -3.234750    1.579515
     30          1           0       -1.661918   -3.144974    1.939837
 ---------------------------------------------------------------------
                    Distance matrix (angstroms):
                    1          2          3          4          5
     1  O    0.000000
     2  C    1.360518   0.000000
     3  C    2.457212   1.514729   0.000000
     4  C    3.559614   2.529478   1.543154   0.000000
     5  C    3.613880   2.962450   2.519301   1.497276   0.000000
     6  C    4.588526   3.937339   3.766521   2.582190   1.385256
     7  N    4.936793   4.637945   4.656568   3.702368   2.249071
     8  C    4.294112   4.310470   4.315869   3.709343   2.254764
     9  C    4.892569   5.243921   5.367494   4.981257   3.590119
    10  O    6.047242   6.381498   6.605028   6.089766   4.622216
    11  C    4.683402   5.305292   5.388651   5.337163   4.167130
    12  C    3.852579   4.500663   4.411994   4.623912   3.772219
    13  C    3.090327   3.393961   3.073037   3.240900   2.578767
    14  C    3.008496   3.190663   2.476716   3.117241   3.165465
    15  C    4.141230   4.526692   3.795381   4.502232   4.593042
    16  N    2.743505   2.498657   1.463584   2.500259   3.132490
    17  C    3.371979   3.273281   3.021667   2.592748   1.411372
    18  O    2.265863   1.233020   2.394855   3.009721   3.468695
    19  H    0.986058   1.960592   3.317629   4.318403   4.257269
    20  H    3.141228   2.091682   1.102005   2.142692   3.435140
    21  H    4.061651   2.821340   2.172734   1.102727   2.138633
    22  H    4.410524   3.464290   2.157269   1.102740   2.144269
    23  H    5.293981   4.451084   4.280077   2.961952   2.213510
    24  H    5.794876   5.526402   5.637750   4.644498   3.233635
    25  H    6.588877   7.073911   7.332982   6.930712   5.493083
    26  H    5.492106   6.250514   6.397232   6.414392   5.250351
    27  H    4.220155   5.036257   4.929571   5.371060   4.708494
    28  H    4.061052   4.741051   4.319347   5.234621   5.261264
    29  H    4.970377   5.342127   4.559965   4.975855   4.847772
    30  H    4.666855   4.864843   3.926783   4.699543   5.097841
                    6          7          8          9         10
     6  C    0.000000
     7  N    1.368450   0.000000
     8  C    2.212178   1.364596   0.000000
     9  C    3.578250   2.492205   1.394795   0.000000
    10  O    4.241497   2.919943   2.382242   1.374445   0.000000
    11  C    4.555780   3.703931   2.390466   1.397798   2.442878
    12  C    4.570410   4.113454   2.765600   2.439144   3.719284
    13  C    3.637298   3.586932   2.449406   2.868446   4.241817
    14  C    4.482448   4.787965   3.827882   4.358853   5.732110
    15  C    5.876032   6.061319   4.973646   5.211363   6.556083
    16  N    4.512749   5.146658   4.456212   5.249055   6.594880
    17  C    2.243414   2.248316   1.397733   2.441042   3.677568
    18  O    4.106597   4.912567   4.887693   5.903893   6.888495
    19  H    5.029280   5.273345   4.707984   5.201691   6.218862
    20  H    4.587803   5.613100   5.381564   6.465035   7.691336
    21  H    2.731649   4.029495   4.350990   5.694509   6.676486
    22  H    3.164476   4.248788   4.216394   5.439725   6.564889
    23  H    1.082141   2.161379   3.246711   4.572165   5.072852
    24  H    2.136270   1.020233   2.127755   2.851690   2.778576
    25  H    5.204488   3.897891   3.238674   1.991554   0.984075
    26  H    5.580156   4.622622   3.379126   2.152293   2.702231
    27  H    5.608761   5.196949   3.848752   3.403294   4.582032
    28  H    6.516517   6.593375   5.416574   5.467596   6.780314
    29  H    6.014528   6.044326   4.909208   4.986204   6.260872
    30  H    6.436176   6.801163   5.827256   6.201519   7.553820
                   11         12         13         14         15
    11  C    0.000000
    12  C    1.409645   0.000000
    13  C    2.464473   1.407953   0.000000
    14  C    3.829261   2.524191   1.491881   0.000000
    15  C    4.356077   2.971415   2.569798   1.506382   0.000000
    16  N    4.925773   3.702493   2.485841   1.292967   2.373185
    17  C    2.784204   2.397006   1.412291   2.546647   3.842440
    18  O    6.171983   5.542690   4.464357   4.392690   5.752900
    19  H    5.051129   4.413999   3.848171   3.944984   5.019216
    20  H    6.475941   5.447945   4.119520   3.297371   4.401330
    21  H    6.208828   5.606384   4.254327   4.172552   5.562002
    22  H    5.720596   4.932541   3.560803   3.222534   4.384716
    23  H    5.617609   5.648273   4.666914   5.378280   6.791340
    24  H    4.210631   4.867167   4.517221   5.778743   7.014120
    25  H    2.564679   3.963326   4.756983   6.227824   6.882882
[...]
 Alpha virt. eigenvalues --    0.23085   0.23446   0.25194   0.26543   0.27550
 Alpha virt. eigenvalues --    0.27977   0.29873   0.32492   0.33005   0.35784
 Alpha virt. eigenvalues --    0.36988   0.38017   0.40233   0.41265   0.43866
 Alpha virt. eigenvalues --    0.47244   0.48579   0.50161   0.51942   0.53089
 Alpha virt. eigenvalues --    0.53617   0.54154   0.54898   0.55512   0.56345
 Alpha virt. eigenvalues --    0.57029   0.58160   0.58517   0.59798   0.60575
 Alpha virt. eigenvalues --    0.61197   0.61944   0.62773   0.63612   0.64237
 Alpha virt. eigenvalues --    0.64766   0.65723   0.67614   0.69162   0.70080
 Alpha virt. eigenvalues --    0.70978   0.73061   0.73433   0.74043   0.76283
 Alpha virt. eigenvalues --    0.77041   0.77705   0.79295   0.80075   0.80686
 Alpha virt. eigenvalues --    0.81443   0.81725   0.83722   0.84915   0.85862
 Alpha virt. eigenvalues --    0.86014   0.86291   0.87276   0.88002   0.89395
 Alpha virt. eigenvalues --    0.89463   0.90853   0.92922   0.93475   0.93846
 Alpha virt. eigenvalues --    0.96278   0.96765   0.97493   0.98497   0.99411
 Alpha virt. eigenvalues --    1.00824   1.01940   1.02736   1.03499   1.04199
 Alpha virt. eigenvalues --    1.06469   1.09011   1.10407   1.11555   1.13618
 Alpha virt. eigenvalues --    1.16503   1.17503   1.20943   1.22648   1.23144
 Alpha virt. eigenvalues --    1.25064   1.26711   1.28114   1.30309   1.31370
 Alpha virt. eigenvalues --    1.33296   1.35146   1.36672   1.36883   1.38898
 Alpha virt. eigenvalues --    1.40473   1.40794   1.44174   1.45821   1.47740
 Alpha virt. eigenvalues --    1.48601   1.49904   1.51950   1.53739   1.57426
 Alpha virt. eigenvalues --    1.60411   1.61514   1.63902   1.65273   1.66474
 Alpha virt. eigenvalues --    1.69499   1.70904   1.73197   1.73934   1.74358
 Alpha virt. eigenvalues --    1.75963   1.76315   1.78771   1.79940   1.82318
 Alpha virt. eigenvalues --    1.82899   1.83977   1.84473   1.86133   1.87633
 Alpha virt. eigenvalues --    1.88014   1.91907   1.93230   1.93959   1.94579
 Alpha virt. eigenvalues --    1.96063   1.97836   1.99256   2.00576   2.01653
 Alpha virt. eigenvalues --    2.03215   2.05182   2.05363   2.07061   2.09054
 Alpha virt. eigenvalues --    2.09481   2.11600   2.13647   2.16753   2.18405
 Alpha virt. eigenvalues --    2.20263   2.23979   2.24652   2.25970   2.27368
 Alpha virt. eigenvalues --    2.28536   2.30049   2.31762   2.32974   2.34242
 Alpha virt. eigenvalues --    2.35069   2.38461   2.40144   2.42255   2.43133
 Alpha virt. eigenvalues --    2.44958   2.46108   2.47859   2.51409   2.52122
 Alpha virt. eigenvalues --    2.55009   2.55872   2.58671   2.61053   2.63921
 Alpha virt. eigenvalues --    2.66266   2.67223   2.67536   2.69606   2.72512
 Alpha virt. eigenvalues --    2.74721   2.76214   2.77550   2.79563   2.84509
 Alpha virt. eigenvalues --    2.87271   2.90440   2.95098   2.99099   3.00315
 Alpha virt. eigenvalues --    3.01237   3.05472   3.09570   3.15758   3.21609
 Alpha virt. eigenvalues --    3.33051   3.47307   3.83990   3.94179   4.06029
 Alpha virt. eigenvalues --    4.08738   4.10464   4.14393   4.17296   4.22655
 Alpha virt. eigenvalues --    4.25368   4.30058   4.32777   4.36490   4.39587
 Alpha virt. eigenvalues --    4.43154   4.54116   4.64824   4.67972   4.91357
          Condensed to atoms (all electrons):
               1          2          3          4          5          6
     1  O    8.211495   0.295984  -0.086750   0.001606  -0.000753   0.000004
     2  C    0.295984   4.413543   0.267714  -0.025408  -0.003241   0.000990
     3  C   -0.086750   0.267714   5.210093   0.287697  -0.025545   0.002761
     4  C    0.001606  -0.025408   0.287697   5.251653   0.354694  -0.087291
     5  C   -0.000753  -0.003241  -0.025545   0.354694   4.925027   0.480344
     6  C    0.000004   0.000990   0.002761  -0.087291   0.480344   5.061818
     7  N    0.000001  -0.000103  -0.000048   0.005606  -0.043554   0.305606
     8  C   -0.000031  -0.000059  -0.000395   0.012943  -0.004422  -0.142913
     9  C   -0.000001   0.000016  -0.000003  -0.000269   0.015761   0.005396
    10  O   -0.000000   0.000000  -0.000000   0.000000  -0.000136   0.000124
    11  C    0.000006  -0.000013   0.000008   0.000027  -0.000323  -0.000156
    12  C   -0.000262  -0.000005  -0.000106  -0.000435   0.010553  -0.000234
    13  C    0.001706   0.002450  -0.012779  -0.018505  -0.104333   0.018177
    14  C    0.004043  -0.005505  -0.068515   0.003497  -0.018897  -0.000307
    15  C   -0.000178  -0.000239   0.009883  -0.000556   0.000079   0.000004
    16  N   -0.000350  -0.031288   0.262140  -0.044473  -0.003087   0.000100
    17  C    0.000194  -0.000791  -0.002710  -0.061248   0.418797   0.024828
    18  O   -0.085263   0.538091  -0.071464  -0.000533  -0.001080  -0.000297
    19  H    0.215384  -0.008328   0.010964  -0.000262   0.000037   0.000005
    20  H    0.001372  -0.046947   0.379339  -0.039023   0.005266  -0.000149
    21  H    0.000164  -0.005851  -0.019543   0.339168  -0.027038  -0.006043
    22  H   -0.000056   0.006106  -0.044735   0.366660  -0.030892   0.000126
    23  H    0.000000  -0.000015   0.000051  -0.003016  -0.027862   0.364533
    24  H   -0.000000   0.000000   0.000002  -0.000088   0.003461  -0.028999
    25  H   -0.000000   0.000000   0.000000  -0.000000   0.000009   0.000005
    26  H    0.000000  -0.000000   0.000000   0.000000   0.000010   0.000001
    27  H   -0.000004  -0.000001  -0.000009  -0.000001  -0.000160   0.000005
    28  H    0.000076   0.000036  -0.000219   0.000001  -0.000006  -0.000000
    29  H   -0.000000  -0.000003  -0.000249   0.000019   0.000031   0.000000
    30  H    0.000009   0.000020  -0.000148   0.000057  -0.000015  -0.000000
               7          8          9         10         11         12
     1  O    0.000001  -0.000031  -0.000001  -0.000000   0.000006  -0.000262
     2  C   -0.000103  -0.000059   0.000016   0.000000  -0.000013  -0.000005
     3  C   -0.000048  -0.000395  -0.000003  -0.000000   0.000008  -0.000106
     4  C    0.005606   0.012943  -0.000269   0.000000   0.000027  -0.000435
     5  C   -0.043554  -0.004422   0.015761  -0.000136  -0.000323   0.010553
     6  C    0.305606  -0.142913   0.005396   0.000124  -0.000156  -0.000234
     7  N    7.030099   0.260161  -0.096773  -0.001662   0.007240  -0.000417
     8  C    0.260161   4.951532   0.403002  -0.048649  -0.038121  -0.056311
     9  C   -0.096773   0.403002   4.762207   0.279583   0.470695   0.007965
    10  O   -0.001662  -0.048649   0.279583   8.247664  -0.069399   0.003664
    11  C    0.007240  -0.038121   0.470695  -0.069399   5.155674   0.438045
    12  C   -0.000417  -0.056311   0.007965   0.003664   0.438045   5.118464
    13  C    0.011834  -0.048474  -0.056580   0.000350  -0.008967   0.459668
    14  C   -0.000093   0.009392  -0.000364   0.000001   0.006365  -0.057793
    15  C    0.000001  -0.000174   0.000009  -0.000000   0.000126  -0.010816
    16  N    0.000004  -0.000117  -0.000016  -0.000000  -0.000105   0.006966
    17  C   -0.061684   0.418577  -0.036656   0.002731  -0.046299  -0.026486
    18  O    0.000000   0.000019   0.000000   0.000000  -0.000000   0.000001
    19  H   -0.000000  -0.000012   0.000001   0.000000  -0.000001   0.000015
    20  H    0.000000   0.000004  -0.000000   0.000000  -0.000000   0.000008
    21  H    0.000001  -0.000021   0.000003  -0.000000  -0.000000   0.000006
    22  H   -0.000026  -0.000159   0.000007  -0.000000  -0.000002   0.000008
    23  H   -0.050133   0.004834  -0.000127  -0.000000   0.000003   0.000003
    24  H    0.325417  -0.027973  -0.007205   0.004902   0.000050  -0.000028
    25  H   -0.000290   0.006111  -0.029828   0.245746  -0.006321   0.000534
    26  H   -0.000108   0.004028  -0.043431  -0.004736   0.343946  -0.027888
    27  H    0.000004   0.000744   0.003487  -0.000051  -0.040283   0.350409
    28  H    0.000000   0.000006  -0.000003   0.000000   0.000173  -0.001076
    29  H    0.000000  -0.000030   0.000011   0.000000  -0.000099   0.000420
    30  H   -0.000000   0.000003  -0.000000  -0.000000  -0.000001   0.000165
              13         14         15         16         17         18
     1  O    0.001706   0.004043  -0.000178  -0.000350   0.000194  -0.085263
     2  C    0.002450  -0.005505  -0.000239  -0.031288  -0.000791   0.538091
     3  C   -0.012779  -0.068515   0.009883   0.262140  -0.002710  -0.071464
     4  C   -0.018505   0.003497  -0.000556  -0.044473  -0.061248  -0.000533
     5  C   -0.104333  -0.018897   0.000079  -0.003087   0.418797  -0.001080
     6  C    0.018177  -0.000307   0.000004   0.000100   0.024828  -0.000297
     7  N    0.011834  -0.000093   0.000001   0.000004  -0.061684   0.000000
     8  C   -0.048474   0.009392  -0.000174  -0.000117   0.418577   0.000019
     9  C   -0.056580  -0.000364   0.000009  -0.000016  -0.036656   0.000000
    10  O    0.000350   0.000001  -0.000000  -0.000000   0.002731   0.000000
    11  C   -0.008967   0.006365   0.000126  -0.000105  -0.046299  -0.000000
    12  C    0.459668  -0.057793  -0.010816   0.006966  -0.026486   0.000001
    13  C    5.119299   0.282228  -0.101797  -0.046808   0.410963  -0.000080
    14  C    0.282228   4.782400   0.344145   0.593221  -0.044641   0.000072
    15  C   -0.101797   0.344145   5.283412  -0.085242   0.004501   0.000001
    16  N   -0.046808   0.593221  -0.085242   6.846126  -0.018722   0.002320
    17  C    0.410963  -0.044641   0.004501  -0.018722   5.009463  -0.000805
    18  O   -0.000080   0.000072   0.000001   0.002320  -0.000805   8.075823
    19  H    0.000094  -0.000248  -0.000008  -0.000360   0.000020   0.010974
    20  H   -0.000284   0.002678  -0.000080  -0.053459   0.000439   0.000126
    21  H   -0.000091  -0.000092   0.000009   0.004223   0.004249   0.008213
    22  H    0.001892   0.000452  -0.000141  -0.003323  -0.004479   0.000117
    23  H   -0.000155   0.000000  -0.000000   0.000001   0.003740  -0.000009
    24  H   -0.000015   0.000002  -0.000000  -0.000000   0.007111  -0.000000
    25  H   -0.000068  -0.000001   0.000000   0.000000  -0.000039   0.000000
    26  H    0.002819  -0.000116   0.000002   0.000001   0.001059   0.000000
    27  H   -0.032030  -0.013632   0.008809   0.000055   0.004391  -0.000000
    28  H    0.001202  -0.023725   0.355440  -0.001283   0.000103  -0.000000
    29  H    0.006502  -0.029024   0.353987   0.001033  -0.000196   0.000000
    30  H    0.004882  -0.025614   0.350239   0.011614  -0.000051  -0.000000
              19         20         21         22         23         24
     1  O    0.215384   0.001372   0.000164  -0.000056   0.000000  -0.000000
     2  C   -0.008328  -0.046947  -0.005851   0.006106  -0.000015   0.000000
     3  C    0.010964   0.379339  -0.019543  -0.044735   0.000051   0.000002
     4  C   -0.000262  -0.039023   0.339168   0.366660  -0.003016  -0.000088
     5  C    0.000037   0.005266  -0.027038  -0.030892  -0.027862   0.003461
     6  C    0.000005  -0.000149  -0.006043   0.000126   0.364533  -0.028999
     7  N   -0.000000   0.000000   0.000001  -0.000026  -0.050133   0.325417
     8  C   -0.000012   0.000004  -0.000021  -0.000159   0.004834  -0.027973
     9  C    0.000001  -0.000000   0.000003   0.000007  -0.000127  -0.007205
    10  O    0.000000   0.000000  -0.000000  -0.000000  -0.000000   0.004902
    11  C   -0.000001  -0.000000  -0.000000  -0.000002   0.000003   0.000050
    12  C    0.000015   0.000008   0.000006   0.000008   0.000003  -0.000028
    13  C    0.000094  -0.000284  -0.000091   0.001892  -0.000155  -0.000015
    14  C   -0.000248   0.002678  -0.000092   0.000452   0.000000   0.000002
    15  C   -0.000008  -0.000080   0.000009  -0.000141  -0.000000  -0.000000
    16  N   -0.000360  -0.053459   0.004223  -0.003323   0.000001  -0.000000
    17  C    0.000020   0.000439   0.004249  -0.004479   0.003740   0.007111
    18  O    0.010974   0.000126   0.008213   0.000117  -0.000009  -0.000000
    19  H    0.366944  -0.000425  -0.000024   0.000006   0.000000   0.000000
    20  H   -0.000425   0.582209  -0.001144  -0.003793   0.000003  -0.000000
    21  H   -0.000024  -0.001144   0.575073  -0.034804   0.002928  -0.000006
    22  H    0.000006  -0.003793  -0.034804   0.585209   0.000023   0.000003
    23  H    0.000000   0.000003   0.002928   0.000023   0.552086  -0.001853
    24  H    0.000000  -0.000000  -0.000006   0.000003  -0.001853   0.385469
    25  H    0.000000   0.000000   0.000000   0.000000  -0.000000  -0.000213
    26  H   -0.000000   0.000000   0.000000  -0.000000  -0.000000   0.000000
    27  H   -0.000000   0.000000  -0.000000   0.000000  -0.000000  -0.000000
    28  H    0.000003  -0.000001   0.000000   0.000002  -0.000000   0.000000
    29  H   -0.000000   0.000003  -0.000000   0.000000  -0.000000   0.000000
    30  H    0.000001  -0.000083  -0.000001   0.000014   0.000000   0.000000
              25         26         27         28         29         30
     1  O   -0.000000   0.000000  -0.000004   0.000076  -0.000000   0.000009
     2  C    0.000000  -0.000000  -0.000001   0.000036  -0.000003   0.000020
     3  C    0.000000   0.000000  -0.000009  -0.000219  -0.000249  -0.000148
     4  C   -0.000000   0.000000  -0.000001   0.000001   0.000019   0.000057
     5  C    0.000009   0.000010  -0.000160  -0.000006   0.000031  -0.000015
     6  C    0.000005   0.000001   0.000005  -0.000000   0.000000  -0.000000
     7  N   -0.000290  -0.000108   0.000004   0.000000   0.000000  -0.000000
     8  C    0.006111   0.004028   0.000744   0.000006  -0.000030   0.000003
     9  C   -0.029828  -0.043431   0.003487  -0.000003   0.000011  -0.000000
    10  O    0.245746  -0.004736  -0.000051   0.000000   0.000000  -0.000000
    11  C   -0.006321   0.343946  -0.040283   0.000173  -0.000099  -0.000001
    12  C    0.000534  -0.027888   0.350409  -0.001076   0.000420   0.000165
    13  C   -0.000068   0.002819  -0.032030   0.001202   0.006502   0.004882
    14  C   -0.000001  -0.000116  -0.013632  -0.023725  -0.029024  -0.025614
    15  C    0.000000   0.000002   0.008809   0.355440   0.353987   0.350239
    16  N    0.000000   0.000001   0.000055  -0.001283   0.001033   0.011614
    17  C   -0.000039   0.001059   0.004391   0.000103  -0.000196  -0.000051
    18  O    0.000000   0.000000  -0.000000  -0.000000   0.000000  -0.000000
    19  H    0.000000  -0.000000  -0.000000   0.000003  -0.000000   0.000001
    20  H    0.000000   0.000000   0.000000  -0.000001   0.000003  -0.000083
    21  H    0.000000   0.000000  -0.000000   0.000000  -0.000000  -0.000001
    22  H    0.000000  -0.000000   0.000000   0.000002   0.000000   0.000014
    23  H   -0.000000  -0.000000  -0.000000  -0.000000  -0.000000   0.000000
    24  H   -0.000213   0.000000  -0.000000   0.000000   0.000000   0.000000
    25  H    0.363371   0.006932  -0.000012  -0.000000  -0.000000  -0.000000
    26  H    0.006932   0.607610  -0.005626  -0.000002  -0.000007  -0.000000
    27  H   -0.000012  -0.005626   0.592418   0.002639   0.000691  -0.000126
    28  H   -0.000000  -0.000002   0.002639   0.565605  -0.035442  -0.022242
    29  H   -0.000000  -0.000007   0.000691  -0.035442   0.569886  -0.021227
    30  H   -0.000000  -0.000000  -0.000126  -0.022242  -0.021227   0.527482
 Mulliken charges:
               1
     1  O   -0.558393
     2  C    0.602846
     3  C   -0.097436
     4  C   -0.342522
     5  C    0.077276
     6  C    0.001561
     7  N   -0.691083
     8  C    0.296505
     9  C    0.323113
    10  O   -0.660132
    11  C   -0.212269
    12  C   -0.215037
    13  C    0.106900
    14  C    0.260070
    15  C   -0.511415
    16  N   -0.439172
    17  C   -0.006359
    18  O   -0.476227
    19  H    0.405219
    20  H    0.173940
    21  H    0.160619
    22  H    0.161785
    23  H    0.154967
    24  H    0.339963
    25  H    0.414064
    26  H    0.115506
    27  H    0.128284
    28  H    0.158713
    29  H    0.153693
    30  H    0.175023
 Sum of Mulliken charges =  -0.00000
 Mulliken charges with hydrogens summed into heavy atoms:
               1
     1  O   -0.153175
     2  C    0.602846
     3  C    0.076504
     4  C   -0.020118
     5  C    0.077276
     6  C    0.156528
     7  N   -0.351120
     8  C    0.296505
     9  C    0.323113
    10  O   -0.246068
    11  C   -0.096763
    12  C   -0.086753
    13  C    0.106900
    14  C    0.260070
    15  C   -0.023986
    16  N   -0.439172
    17  C   -0.006359
    18  O   -0.476227
 Electronic spatial extent (au):  <R**2>=           3872.0882
 Charge=              0.0000 electrons
 Dipole moment (field-independent basis, Debye):
    X=              4.3847    Y=              0.0276    Z=              0.6020  Tot=              4.4259
 Quadrupole moment (field-independent basis, Debye-Ang):
   XX=            -93.2539   YY=            -96.1136   ZZ=            -98.4038
   XY=              0.3020   XZ=              3.7369   YZ=              6.8016
 Traceless Quadrupole moment (field-independent basis, Debye-Ang):
   XX=              2.6699   YY=             -0.1898   ZZ=             -2.4800
   XY=              0.3020   XZ=              3.7369   YZ=              6.8016
 Octapole moment (field-independent basis, Debye-Ang**2):
  XXX=             80.6116  YYY=            -14.5178  ZZZ=             40.5614  XYY=             38.6176
  XXY=              6.0070  XXZ=             25.9148  XZZ=             -9.6292  YZZ=             -3.6667
  YYZ=            -10.2179  XYZ=             -0.3396
 Hexadecapole moment (field-independent basis, Debye-Ang**3):
 XXXX=          -2342.4256 YYYY=          -1572.5520 ZZZZ=           -506.7941 XXXY=             96.8882
 XXXZ=             83.2305 YYYX=            -87.0143 YYYZ=             51.8994 ZZZX=            -60.6804
 ZZZY=            -15.2213 XXYY=           -716.2971 XXZZ=           -514.2909 YYZZ=           -393.0483
 XXYZ=             60.0005 YYXZ=             20.8482 ZZXY=              5.7211
 N-N= 1.328524288173D+03 E-N=-4.609581309873D+03  KE= 8.301191414400D+02
 1\1\GINC-C085\FOpt\RB3LYP\6-31G(d)\C13H12N2O3\XYCAO\28-Dec-2023\0\\# o
 pt b3lyp/6-31g(d)\\molecule_6_1\\0,1\O,-2.5052795177,-0.2086707301,-1.
 5612513527\C,-2.5430617907,0.8490205455,-0.7231996795\C,-2.3179617179,
 0.493366224,0.7514940893\C,-1.3660777755,1.532589723,1.3977314705\C,-0
 .0422240328,1.5807701829,0.7035042588\C,0.7428901551,2.6753047735,0.42
 91394771\N,1.8778963977,2.2796374708,-0.2478998177\C,1.8271524184,0.91
 73781359,-0.4340105272\C,2.739187408,0.0671032826,-1.0662873585\O,3.86
 4272815,0.6309799371,-1.6044653607\C,2.4333899108,-1.2893108097,-1.097
 5004603\C,1.2524822127,-1.7765577806,-0.5089462134\C,0.3146449485,-0.9
 449124989,0.1132187847\C,-0.9170871101,-1.5026172624,0.7314188537\C,-0
 .9004613169,-2.9840602058,1.0709529066\N,-2.0152866066,-0.9015777403,1
 .0281299121\C,0.6282960187,0.4406354794,0.1492657598\O,-2.7847274815,1
 .974495373,-1.1047917131\H,-2.6862042502,0.1573288935,-2.4480129945\H,
 -3.3063910369,0.6698969508,1.2006986431\H,-1.8502087275,2.5138628743,1
 .3691057188\H,-1.2588214714,1.2511441418,2.4534632872\H,0.5744223736,3
 .7184098051,0.6592402411\H,2.6161357963,2.8799369007,-0.5794867133\H,4
 .404104476,-0.0674934938,-2.0065259421\H,3.1184835731,-1.9829571887,-1
 .5811057444\H,1.0723861799,-2.8444035467,-0.5596129353\H,-0.8983770294
 ,-3.5971322908,0.1605908867\H,-0.0137030867,-3.2592645432,1.653596201\
 H,-1.8016717319,-3.2210726027,1.6380563221\\Version=ES64L-G16RevA.03\S
 tate=1-A\HF=-837.7819342\RMSD=4.638e-09\RMSF=5.528e-06\Dipole=1.638687
 6,0.0353166,-0.5878172\Quadrupole=0.6275404,0.5915771,-1.2191175,0.610
 3787,-3.6178979,4.737487\PG=C01 [X(C13H12N2O3)]\\@


 YOU ARE IN A MAZE OF TWISTY LITTLE PASSAGES.
 Job cpu time:       0 days  1 hours  8 minutes 32.1 seconds.
 Elapsed time:       0 days  0 hours  2 minutes 12.2 seconds.
 File lengths (MBytes):  RWF=     60 Int=      0 D2E=      0 Chk=      8 Scr=      1
 Normal termination of Gaussian 16 at Thu Dec 28 10:03:38 2023.
