 Entering Gaussian System, Link 0=g16
 Input=molecule_5_1.com
 Output=molecule_5_1.log
 Initial command:
 /share/apps/g16/A03/l1.exe "/tmp/954052.tmpdir/scr/Gau-15313.inp" -scrdir="/tmp/954052.tmpdir/scr/"
 Entering Link 1 = /share/apps/g16/A03/l1.exe PID=     15314.
  
 Copyright (c) 1988,1990,1992,1993,1995,1998,2003,2009,2016,
            Gaussian, Inc.  All Rights Reserved.
  
 This is part of the Gaussian(R) 16 program.  It is based on
 the Gaussian(R) 09 system (copyright 2009, Gaussian, Inc.),
 the Gaussian(R) 03 system (copyright 2003, Gaussian, Inc.),
 the Gaussian(R) 98 system (copyright 1998, Gaussian, Inc.),
 the Gaussian(R) 94 system (copyright 1995, Gaussian, Inc.),
 the Gaussian 92(TM) system (copyright 1992, Gaussian, Inc.),
 the Gaussian 90(TM) system (copyright 1990, Gaussian, Inc.),
 the Gaussian 88(TM) system (copyright 1988, Gaussian, Inc.),
 the Gaussian 86(TM) system (copyright 1986, Carnegie Mellon
 University), and the Gaussian 82(TM) system (copyright 1983,
 Carnegie Mellon University). Gaussian is a federally registered
 trademark of Gaussian, Inc.
  
 This software contains proprietary and confidential information,
 including trade secrets, belonging to Gaussian, Inc.
  
 This software is provided under written license and may be
 used, copied, transmitted, or stored only in accord with that
 written license.
  
 The following legend is applicable only to US Government
 contracts under FAR:
  
                    RESTRICTED RIGHTS LEGEND
  
 Use, reproduction and disclosure by the US Government is
 subject to restrictions as set forth in subparagraphs (a)
 and (c) of the Commercial Computer Software - Restricted
 Rights clause in FAR 52.227-19.
  
 Gaussian, Inc.
 340 Quinnipiac St., Bldg. 40, Wallingford CT 06492
  
  
 ---------------------------------------------------------------
 Warning -- This program may not be used in any manner that
 competes with the business of Gaussian, Inc. or will provide
 assistance to any competitor of Gaussian, Inc.  The licensee
 of this program is prohibited from giving any competitor of
 Gaussian, Inc. access to this program.  By using this program,
 the user acknowledges that Gaussian, Inc. is engaged in the
 business of creating and licensing software in the field of
 computational chemistry and represents and warrants to the
 licensee that it is not a competitor of Gaussian, Inc. and that
 it will not use this program in any manner prohibited above.
 ---------------------------------------------------------------
  

 Cite this work as:
 Gaussian 16, Revision A.03,
 M. J. Frisch, G. W. Trucks, H. B. Schlegel, G. E. Scuseria, 
 M. A. Robb, J. R. Cheeseman, G. Scalmani, V. Barone, 
 G. A. Petersson, H. Nakatsuji, X. Li, M. Caricato, A. V. Marenich, 
 J. Bloino, B. G. Janesko, R. Gomperts, B. Mennucci, H. P. Hratchian, 
 J. V. Ortiz, A. F. Izmaylov, J. L. Sonnenberg, D. Williams-Young, 
 F. Ding, F. Lipparini, F. Egidi, J. Goings, B. Peng, A. Petrone, 
 T. Henderson, D. Ranasinghe, V. G. Zakrzewski, J. Gao, N. Rega, 
 G. Zheng, W. Liang, M. Hada, M. Ehara, K. Toyota, R. Fukuda, 
 J. Hasegawa, M. Ishida, T. Nakajima, Y. Honda, O. Kitao, H. Nakai, 
 T. Vreven, K. Throssell, J. A. Montgomery, Jr., J. E. Peralta, 
 F. Ogliaro, M. J. Bearpark, J. J. Heyd, E. N. Brothers, K. N. Kudin, 
 V. N. Staroverov, T. A. Keith, R. Kobayashi, J. Normand, 
 K. Raghavachari, A. P. Rendell, J. C. Burant, S. S. Iyengar, 
 J. Tomasi, M. Cossi, J. M. Millam, M. Klene, C. Adamo, R. Cammi, 
 J. W. Ochterski, R. L. Martin, K. Morokuma, O. Farkas, 
 J. B. Foresman, and D. J. Fox, Gaussian, Inc., Wallingford CT, 2016.
 
 ******************************************
 Gaussian 16:  ES64L-G16RevA.03 25-Dec-2016
                28-Dec-2023 
 ******************************************
 %nprocs=32
 Will use up to   32 processors via shared memory.
 %chk=molecule_5_1.chk
 %mem=10GB
 --------------------
 # opt b3lyp/6-31g(d)
 --------------------
 1/18=20,19=15,26=3,38=1/1,3;
 2/9=110,12=2,17=6,18=5,40=1/2;
 3/5=1,6=6,7=1,11=2,25=1,30=1,71=1,74=-5/1,2,3;
 4//1;
 5/5=2,38=5/2;
 6/7=2,8=2,9=2,10=2,28=1/1;
 7//1,2,3,16;
 1/18=20,19=15,26=3/3(2);
 2/9=110/2;
 99//99;
 2/9=110/2;
 3/5=1,6=6,7=1,11=2,25=1,30=1,71=1,74=-5/1,2,3;
 4/5=5,16=3,69=1/1;
 5/5=2,38=5/2;
 7//1,2,3,16;
 1/18=20,19=15,26=3/3(-5);
 2/9=110/2;
 6/7=2,8=2,9=2,10=2,19=2,28=1/1;
 99/9=1/99;
 ------------
 molecule_5_1
 ------------
 Symbolic Z-matrix:
 Charge =  0 Multiplicity = 1
 O                     3.9444   -0.2876   -3.1026 
 C                     3.0971   -0.1731   -2.1766 
 C                     1.6914    0.1187   -2.4947 
 O                     1.3439    0.2561   -3.6988 
 C                     3.5159   -0.3311   -0.7729 
 O                     4.8704   -0.6071   -0.518 
 C                     5.87695  -0.74874  -1.51639 
 C                     2.607    -0.2096    0.2137 
 C                     1.1778    0.0811   -0.0627 
 C                     0.7123    0.2482   -1.3847 
 C                    -0.6559    0.5243   -1.6158 
 O                    -1.1148    0.6441   -2.9321 
 C                    -1.5427    0.6649   -0.5199 
 C                    -3.0149    0.9626   -0.7389 
 O                    -3.7112    1.3547    0.4345 
 C                    -3.4633    0.4938    1.5336 
 C                    -3.9339   -0.9513    1.2875 
 C                    -1.9932    0.5768    1.9639 
 C                    -1.0695    0.4507    0.7869 
 C                     0.2842    0.1806    1.008 
 H                     5.97435   0.19275  -2.0972 
 H                     5.62805  -1.59335  -2.19301 
 H                     6.84751  -0.96329  -1.02411 
 H                     2.9094   -0.3256    1.246 
 H                    -2.0867    0.7738   -3.1796 
 H                    -3.5152    0.0883   -1.2079 
 H                    -3.0999    1.8082   -1.4525 
 H                    -4.0695    0.8749    2.3843 
 H                    -4.9685   -0.9473    0.8844 
 H                    -3.2673   -1.4805    0.5745 
 H                    -3.9325   -1.5157    2.2443 
 H                    -1.8125    1.5643    2.4414 
 H                    -1.7733   -0.2122    2.7166 
 H                     0.6421    0.0471    2.0227 
 

 GradGradGradGradGradGradGradGradGradGradGradGradGradGradGradGradGradGrad
 Berny optimization.
 Initialization pass.
                           ----------------------------
                           !    Initial Parameters    !
                           ! (Angstroms and Degrees)  !
 --------------------------                            --------------------------
 ! Name  Definition              Value          Derivative Info.                !
 --------------------------------------------------------------------------------
 ! R1    R(1,2)                  1.2604         estimate D2E/DX2                !
 ! R2    R(2,3)                  1.4705         estimate D2E/DX2                !
 ! R3    R(2,5)                  1.4733         estimate D2E/DX2                !
 ! R4    R(3,4)                  1.2608         estimate D2E/DX2                !
 ! R5    R(3,10)                 1.4858         estimate D2E/DX2                !
 ! R6    R(5,6)                  1.4056         estimate D2E/DX2                !
 ! R7    R(5,8)                  1.3469         estimate D2E/DX2                !
 ! R8    R(6,7)                  1.4248         estimate D2E/DX2                !
 ! R9    R(7,21)                 1.1105         estimate D2E/DX2                !
 ! R10   R(7,22)                 1.1105         estimate D2E/DX2                !
 ! R11   R(7,23)                 1.1092         estimate D2E/DX2                !
 ! R12   R(8,9)                  1.4844         estimate D2E/DX2                !
 ! R13   R(8,24)                 1.0819         estimate D2E/DX2                !
 ! R14   R(9,10)                 1.4115         estimate D2E/DX2                !
 ! R15   R(9,20)                 1.3981         estimate D2E/DX2                !
 ! R16   R(10,11)                1.4148         estimate D2E/DX2                !
 ! R17   R(11,12)                1.3991         estimate D2E/DX2                !
 ! R18   R(11,13)                1.4167         estimate D2E/DX2                !
 ! R19   R(12,25)                1.0113         estimate D2E/DX2                !
 ! R20   R(13,14)                1.5179         estimate D2E/DX2                !
 ! R21   R(13,19)                1.4062         estimate D2E/DX2                !
 ! R22   R(14,15)                1.4197         estimate D2E/DX2                !
 ! R23   R(14,26)                1.1112         estimate D2E/DX2                !
 ! R24   R(14,27)                1.1097         estimate D2E/DX2                !
 ! R25   R(15,16)                1.418          estimate D2E/DX2                !
 ! R26   R(16,17)                1.5396         estimate D2E/DX2                !
 ! R27   R(16,18)                1.534          estimate D2E/DX2                !
 ! R28   R(16,28)                1.1119         estimate D2E/DX2                !
 ! R29   R(17,29)                1.1104         estimate D2E/DX2                !
 ! R30   R(17,30)                1.1103         estimate D2E/DX2                !
 ! R31   R(17,31)                1.1109         estimate D2E/DX2                !
 ! R32   R(18,19)                1.5015         estimate D2E/DX2                !
 ! R33   R(18,32)                1.1117         estimate D2E/DX2                !
 ! R34   R(18,33)                1.1124         estimate D2E/DX2                !
 ! R35   R(19,20)                1.398          estimate D2E/DX2                !
 ! R36   R(20,34)                1.0842         estimate D2E/DX2                !
 ! A1    A(1,2,3)              120.1154         estimate D2E/DX2                !
 ! A2    A(1,2,5)              119.9436         estimate D2E/DX2                !
 ! A3    A(3,2,5)              119.941          estimate D2E/DX2                !
 ! A4    A(2,3,4)              119.4534         estimate D2E/DX2                !
 ! A5    A(2,3,10)             119.0542         estimate D2E/DX2                !
 ! A6    A(4,3,10)             121.4923         estimate D2E/DX2                !
 ! A7    A(2,5,6)              117.8875         estimate D2E/DX2                !
 ! A8    A(2,5,8)              119.7602         estimate D2E/DX2                !
 ! A9    A(6,5,8)              122.3523         estimate D2E/DX2                !
 ! A10   A(5,6,7)              124.9742         estimate D2E/DX2                !
 ! A11   A(6,7,21)             110.1313         estimate D2E/DX2                !
 ! A12   A(6,7,22)             110.1349         estimate D2E/DX2                !
 ! A13   A(6,7,23)             109.0497         estimate D2E/DX2                !
 ! A14   A(21,7,22)            110.2313         estimate D2E/DX2                !
 ! A15   A(21,7,23)            108.6242         estimate D2E/DX2                !
 ! A16   A(22,7,23)            108.6281         estimate D2E/DX2                !
 ! A17   A(5,8,9)              122.0706         estimate D2E/DX2                !
 ! A18   A(5,8,24)             120.0402         estimate D2E/DX2                !
 ! A19   A(9,8,24)             117.8892         estimate D2E/DX2                !
 ! A20   A(8,9,10)             121.0044         estimate D2E/DX2                !
 ! A21   A(8,9,20)             119.1238         estimate D2E/DX2                !
 ! A22   A(10,9,20)            119.8705         estimate D2E/DX2                !
 ! A23   A(3,10,9)             118.1691         estimate D2E/DX2                !
 ! A24   A(3,10,11)            122.1585         estimate D2E/DX2                !
 ! A25   A(9,10,11)            119.6717         estimate D2E/DX2                !
 ! A26   A(10,11,12)           119.1812         estimate D2E/DX2                !
 ! A27   A(10,11,13)           119.8905         estimate D2E/DX2                !
 ! A28   A(12,11,13)           120.9263         estimate D2E/DX2                !
 ! A29   A(11,12,25)           123.8108         estimate D2E/DX2                !
 ! A30   A(11,13,14)           120.9949         estimate D2E/DX2                !
 ! A31   A(11,13,19)           119.5435         estimate D2E/DX2                !
 ! A32   A(14,13,19)           119.3619         estimate D2E/DX2                !
 ! A33   A(13,14,15)           114.2441         estimate D2E/DX2                !
 ! A34   A(13,14,26)           110.0768         estimate D2E/DX2                !
 ! A35   A(13,14,27)           108.4524         estimate D2E/DX2                !
 ! A36   A(15,14,26)           110.2032         estimate D2E/DX2                !
 ! A37   A(15,14,27)           106.4676         estimate D2E/DX2                !
 ! A38   A(26,14,27)           107.0772         estimate D2E/DX2                !
 ! A39   A(14,15,16)           112.7824         estimate D2E/DX2                !
 ! A40   A(15,16,17)           113.1123         estimate D2E/DX2                !
 ! A41   A(15,16,18)           110.6169         estimate D2E/DX2                !
 ! A42   A(15,16,28)           106.8351         estimate D2E/DX2                !
 ! A43   A(17,16,18)           112.8643         estimate D2E/DX2                !
 ! A44   A(17,16,28)           106.1022         estimate D2E/DX2                !
 ! A45   A(18,16,28)           106.8166         estimate D2E/DX2                !
 ! A46   A(16,17,29)           109.8439         estimate D2E/DX2                !
 ! A47   A(16,17,30)           111.5004         estimate D2E/DX2                !
 ! A48   A(16,17,31)           109.8054         estimate D2E/DX2                !
 ! A49   A(29,17,30)           109.1474         estimate D2E/DX2                !
 ! A50   A(29,17,31)           108.4025         estimate D2E/DX2                !
 ! A51   A(30,17,31)           108.0706         estimate D2E/DX2                !
 ! A52   A(16,18,19)           111.4154         estimate D2E/DX2                !
 ! A53   A(16,18,32)           108.9245         estimate D2E/DX2                !
 ! A54   A(16,18,33)           109.9298         estimate D2E/DX2                !
 ! A55   A(19,18,32)           108.1383         estimate D2E/DX2                !
 ! A56   A(19,18,33)           110.4407         estimate D2E/DX2                !
 ! A57   A(32,18,33)           107.8953         estimate D2E/DX2                !
 ! A58   A(13,19,18)           120.5742         estimate D2E/DX2                !
 ! A59   A(13,19,20)           120.1485         estimate D2E/DX2                !
 ! A60   A(18,19,20)           119.2063         estimate D2E/DX2                !
 ! A61   A(9,20,19)            120.7652         estimate D2E/DX2                !
 ! A62   A(9,20,34)            119.7989         estimate D2E/DX2                !
 ! A63   A(19,20,34)           119.4359         estimate D2E/DX2                !
 ! D1    D(1,2,3,4)             -0.1767         estimate D2E/DX2                !
 ! D2    D(1,2,3,10)           179.9734         estimate D2E/DX2                !
 ! D3    D(5,2,3,4)            179.7871         estimate D2E/DX2                !
 ! D4    D(5,2,3,10)            -0.0628         estimate D2E/DX2                !
 ! D5    D(1,2,5,6)              0.071          estimate D2E/DX2                !
 ! D6    D(1,2,5,8)           -179.9188         estimate D2E/DX2                !
 ! D7    D(3,2,5,6)           -179.8929         estimate D2E/DX2                !
 ! D8    D(3,2,5,8)              0.1173         estimate D2E/DX2                !
 ! D9    D(2,3,10,9)            -0.1394         estimate D2E/DX2                !
 ! D10   D(2,3,10,11)         -179.8328         estimate D2E/DX2                !
 ! D11   D(4,3,10,9)          -179.9861         estimate D2E/DX2                !
 ! D12   D(4,3,10,11)            0.3205         estimate D2E/DX2                !
 ! D13   D(2,5,6,7)             -0.0811         estimate D2E/DX2                !
 ! D14   D(8,5,6,7)            179.9085         estimate D2E/DX2                !
 ! D15   D(2,5,8,9)              0.0309         estimate D2E/DX2                !
 ! D16   D(2,5,8,24)           179.9469         estimate D2E/DX2                !
 ! D17   D(6,5,8,9)           -179.9584         estimate D2E/DX2                !
 ! D18   D(6,5,8,24)            -0.0425         estimate D2E/DX2                !
 ! D19   D(5,6,7,21)            60.9072         estimate D2E/DX2                !
 ! D20   D(5,6,7,22)           -60.8745         estimate D2E/DX2                !
 ! D21   D(5,6,7,23)          -179.9871         estimate D2E/DX2                !
 ! D22   D(5,8,9,10)            -0.2439         estimate D2E/DX2                !
 ! D23   D(5,8,9,20)           179.3347         estimate D2E/DX2                !
 ! D24   D(24,8,9,10)          179.8384         estimate D2E/DX2                !
 ! D25   D(24,8,9,20)           -0.583          estimate D2E/DX2                !
 ! D26   D(8,9,10,3)             0.2886         estimate D2E/DX2                !
 ! D27   D(8,9,10,11)          179.9898         estimate D2E/DX2                !
 ! D28   D(20,9,10,3)         -179.2869         estimate D2E/DX2                !
 ! D29   D(20,9,10,11)           0.4144         estimate D2E/DX2                !
 ! D30   D(8,9,20,19)         -179.8807         estimate D2E/DX2                !
 ! D31   D(8,9,20,34)            0.1099         estimate D2E/DX2                !
 ! D32   D(10,9,20,19)          -0.2973         estimate D2E/DX2                !
 ! D33   D(10,9,20,34)         179.6933         estimate D2E/DX2                !
 ! D34   D(3,10,11,12)           1.7909         estimate D2E/DX2                !
 ! D35   D(3,10,11,13)        -178.7127         estimate D2E/DX2                !
 ! D36   D(9,10,11,12)        -177.898          estimate D2E/DX2                !
 ! D37   D(9,10,11,13)           1.5984         estimate D2E/DX2                !
 ! D38   D(10,11,12,25)        175.4305         estimate D2E/DX2                !
 ! D39   D(13,11,12,25)         -4.0605         estimate D2E/DX2                !
 ! D40   D(10,11,13,14)        179.9341         estimate D2E/DX2                !
 ! D41   D(10,11,13,19)         -3.7201         estimate D2E/DX2                !
 ! D42   D(12,11,13,14)         -0.5785         estimate D2E/DX2                !
 ! D43   D(12,11,13,19)        175.7673         estimate D2E/DX2                !
 ! D44   D(11,13,14,15)       -167.2397         estimate D2E/DX2                !
 ! D45   D(11,13,14,26)         68.1594         estimate D2E/DX2                !
 ! D46   D(11,13,14,27)        -48.6843         estimate D2E/DX2                !
 ! D47   D(19,13,14,15)         16.4079         estimate D2E/DX2                !
 ! D48   D(19,13,14,26)       -108.1929         estimate D2E/DX2                !
 ! D49   D(19,13,14,27)        134.9634         estimate D2E/DX2                !
 ! D50   D(11,13,19,18)       -179.2391         estimate D2E/DX2                !
 ! D51   D(11,13,19,20)          3.8504         estimate D2E/DX2                !
 ! D52   D(14,13,19,18)         -2.8331         estimate D2E/DX2                !
 ! D53   D(14,13,19,20)       -179.7436         estimate D2E/DX2                !
 ! D54   D(13,14,15,16)        -48.2772         estimate D2E/DX2                !
 ! D55   D(26,14,15,16)         76.2563         estimate D2E/DX2                !
 ! D56   D(27,14,15,16)       -167.9537         estimate D2E/DX2                !
 ! D57   D(14,15,16,17)        -62.356          estimate D2E/DX2                !
 ! D58   D(14,15,16,18)         65.3731         estimate D2E/DX2                !
 ! D59   D(14,15,16,28)       -178.7281         estimate D2E/DX2                !
 ! D60   D(15,16,17,29)        -47.9241         estimate D2E/DX2                !
 ! D61   D(15,16,17,30)         73.2035         estimate D2E/DX2                !
 ! D62   D(15,16,17,31)       -167.0471         estimate D2E/DX2                !
 ! D63   D(18,16,17,29)       -174.4696         estimate D2E/DX2                !
 ! D64   D(18,16,17,30)        -53.3421         estimate D2E/DX2                !
 ! D65   D(18,16,17,31)         66.4073         estimate D2E/DX2                !
 ! D66   D(28,16,17,29)         68.8809         estimate D2E/DX2                !
 ! D67   D(28,16,17,30)       -169.9915         estimate D2E/DX2                !
 ! D68   D(28,16,17,31)        -50.2421         estimate D2E/DX2                !
 ! D69   D(15,16,18,19)        -48.4759         estimate D2E/DX2                !
 ! D70   D(15,16,18,32)         70.7318         estimate D2E/DX2                !
 ! D71   D(15,16,18,33)       -171.2441         estimate D2E/DX2                !
 ! D72   D(17,16,18,19)         79.3888         estimate D2E/DX2                !
 ! D73   D(17,16,18,32)       -161.4034         estimate D2E/DX2                !
 ! D74   D(17,16,18,33)        -43.3794         estimate D2E/DX2                !
 ! D75   D(28,16,18,19)       -164.3862         estimate D2E/DX2                !
 ! D76   D(28,16,18,32)        -45.1785         estimate D2E/DX2                !
 ! D77   D(28,16,18,33)         72.8456         estimate D2E/DX2                !
 ! D78   D(16,18,19,13)         18.3833         estimate D2E/DX2                !
 ! D79   D(16,18,19,20)       -164.6773         estimate D2E/DX2                !
 ! D80   D(32,18,19,13)       -101.2913         estimate D2E/DX2                !
 ! D81   D(32,18,19,20)         75.6481         estimate D2E/DX2                !
 ! D82   D(33,18,19,13)        140.8581         estimate D2E/DX2                !
 ! D83   D(33,18,19,20)        -42.2026         estimate D2E/DX2                !
 ! D84   D(13,19,20,9)          -1.8556         estimate D2E/DX2                !
 ! D85   D(13,19,20,34)        178.1538         estimate D2E/DX2                !
 ! D86   D(18,19,20,9)        -178.8082         estimate D2E/DX2                !
 ! D87   D(18,19,20,34)          1.2011         estimate D2E/DX2                !
 --------------------------------------------------------------------------------
 Trust Radius=3.00D-01 FncErr=1.00D-07 GrdErr=1.00D-06 EigMax=2.50D+02 EigMin=1.00D-04
 Number of steps in this run=    196 maximum allowed number of steps=    204.
 GradGradGradGradGradGradGradGradGradGradGradGradGradGradGradGradGradGrad

                          Input orientation:                          
 ---------------------------------------------------------------------
 Center     Atomic      Atomic             Coordinates (Angstroms)
 Number     Number       Type             X           Y           Z
 ---------------------------------------------------------------------
      1          8           0        3.944400   -0.287600   -3.102600
      2          6           0        3.097100   -0.173100   -2.176600
      3          6           0        1.691400    0.118700   -2.494700
      4          8           0        1.343900    0.256100   -3.698800
      5          6           0        3.515900   -0.331100   -0.772900
      6          8           0        4.870400   -0.607100   -0.518000
      7          6           0        5.876950   -0.748740   -1.516390
      8          6           0        2.607000   -0.209600    0.213700
      9          6           0        1.177800    0.081100   -0.062700
     10          6           0        0.712300    0.248200   -1.384700
     11          6           0       -0.655900    0.524300   -1.615800
     12          8           0       -1.114800    0.644100   -2.932100
     13          6           0       -1.542700    0.664900   -0.519900
     14          6           0       -3.014900    0.962600   -0.738900
     15          8           0       -3.711200    1.354700    0.434500
     16          6           0       -3.463300    0.493800    1.533600
     17          6           0       -3.933900   -0.951300    1.287500
     18          6           0       -1.993200    0.576800    1.963900
     19          6           0       -1.069500    0.450700    0.786900
     20          6           0        0.284200    0.180600    1.008000
     21          1           0        5.974350    0.192750   -2.097200
     22          1           0        5.628050   -1.593350   -2.193010
     23          1           0        6.847510   -0.963290   -1.024110
     24          1           0        2.909400   -0.325600    1.246000
     25          1           0       -2.086700    0.773800   -3.179600
     26          1           0       -3.515200    0.088300   -1.207900
     27          1           0       -3.099900    1.808200   -1.452500
     28          1           0       -4.069500    0.874900    2.384300
     29          1           0       -4.968500   -0.947300    0.884400
     30          1           0       -3.267300   -1.480500    0.574500
     31          1           0       -3.932500   -1.515700    2.244300
     32          1           0       -1.812500    1.564300    2.441400
     33          1           0       -1.773300   -0.212200    2.716600
     34          1           0        0.642100    0.047100    2.022700
 ---------------------------------------------------------------------
                    Distance matrix (angstroms):
                    1          2          3          4          5
     1  O    0.000000
     2  C    1.260358   0.000000
     3  C    2.368677   1.470485   0.000000
     4  O    2.722805   2.361147   1.260750   0.000000
     5  C    2.369178   1.473340   2.548669   3.690973   0.000000
     6  O    2.764003   2.466557   3.813157   4.826884   1.405639
     7  C    2.542334   2.914585   4.385017   5.130415   2.510330
     8  C    3.576670   2.440300   2.877766   4.137627   1.346938
     9  C    4.126864   2.866514   2.485925   3.644096   2.478105
    10  C    3.699288   2.547915   1.485768   2.398758   2.927467
    11  C    4.902297   3.858221   2.539054   2.900003   4.341210
    12  O    5.147100   4.356455   2.888273   2.604530   5.201590
    13  C    6.138881   4.997464   3.828521   4.313349   5.161924
    14  C    7.455329   6.380701   5.093551   5.315947   6.657790
    15  O    8.591649   7.450165   6.268652   6.621565   7.518691
    16  C    8.773765   7.566319   6.552773   7.109408   7.396596
    17  C    9.043290   7.876582   6.862502   7.360447   7.754316
    18  C    7.853133   6.604335   5.802176   6.580673   6.218082
    19  C    6.388465   5.150924   4.301359   5.097438   4.906127
    20  C    5.523885   4.263706   3.775308   4.825208   3.725228
    21  H    2.315656   2.901503   4.301994   4.900021   2.841156
    22  H    2.316682   2.902256   4.303411   4.903245   2.840980
    23  H    3.633831   4.002275   5.469809   6.239439   3.400352
    24  H    4.470234   3.431134   3.959010   5.219216   2.108039
    25  H    6.124269   5.364179   3.895162   3.508076   6.196946
    26  H    7.705636   6.687991   5.363344   5.462929   7.057017
    27  H    7.532421   6.546196   5.186246   5.215576   6.986220
    28  H    9.781619   8.559221   7.587124   8.166512   8.304254
    29  H    9.786274   8.661582   7.543801   7.893053   8.666683
    30  H    8.182462   7.055738   6.046994   6.522272   7.010593
    31  H    9.599121   8.412028   7.533766   8.142488   8.123142
    32  H    8.204107   6.960507   6.223517   7.026827   6.505084
    33  H    8.158484   6.904037   6.266681   7.147979   6.337695
    34  H    6.106219   4.869254   4.638217   5.768168   4.027051
                    6          7          8          9         10
     6  O    0.000000
     7  C    1.424776   0.000000
     8  C    2.411715   3.738510   0.000000
     9  C    3.783677   4.988372   1.484424   0.000000
    10  C    4.332725   5.261639   2.520784   1.411487   0.000000
    11  C    5.746758   6.656474   3.812112   2.443563   1.414783
    12  O    6.573888   7.268343   4.947389   3.715702   2.426825
    13  C    6.538030   7.618568   4.303827   2.819747   2.450825
    14  C    8.043054   9.088354   5.821276   4.337398   3.849603
    15  O    8.854365  10.008149   6.512714   5.076572   4.909296
    16  C    8.652838   9.903869   6.251836   4.925272   5.100238
    17  C    8.994109  10.205665   6.669823   5.386870   5.492415
    18  C    7.393947   8.706821   4.984322   3.795796   4.317503
    19  C    6.172853   7.415994   3.779048   2.430799   2.816321
    20  C    4.897181   6.206051   2.485673   1.398149   2.431636
    21  H    2.086226   1.110509   4.103802   5.211386   5.310358
    22  H    2.086236   1.110465   4.102897   5.210252   5.311240
    23  H    2.071710   1.109215   4.481311   5.844713   6.264067
    24  H    2.652633   4.076297   1.081917   2.208289   3.475209
    25  H    7.575767   8.276721   5.874724   4.566384   3.366351
    26  H    8.442620   9.434420   6.292140   4.830713   4.234216
    27  H    8.380492   9.334123   6.278252   4.818001   4.119595
    28  H    9.515329  10.806639   7.103752   5.843979   6.120762
    29  H    9.944165  11.109771   7.640827   6.303301   6.232939
    30  H    8.257030   9.408751   6.021027   4.754317   4.760681
    31  H    9.270755  10.533581   6.970961   5.829853   6.152654
    32  H    7.624577   8.952201   5.257504   4.172804   4.769253
    33  H    7.399820   8.759703   5.044952   4.064422   4.817763
    34  H    4.976108   6.368844   2.683134   2.153375   3.414051
                   11         12         13         14         15
    11  C    0.000000
    12  O    1.399138   0.000000
    13  C    1.416750   2.449947   0.000000
    14  C    2.554592   2.919238   1.517880   0.000000
    15  O    3.772022   4.310480   2.467609   1.419663   0.000000
    16  C    4.219140   5.047823   2.816885   2.363280   1.417965
    17  C    4.620804   5.319554   3.405383   2.934940   2.468773
    18  C    3.821699   4.974629   2.525861   2.915106   2.428110
    19  C    2.439149   3.724301   1.406245   2.524815   2.814246
    20  C    2.808246   4.206711   2.430347   3.814085   4.203645
    21  H    6.655966   7.152400   7.695248   9.123829  10.078170
    22  H    6.656248   7.142721   7.701860   9.129507  10.139842
    23  H    7.672300   8.344010   8.561592  10.052737  10.908115
    24  H    4.650118   5.881413   4.890878   6.379390   6.878538
    25  H    2.134223   1.011270   2.716947   2.618056   4.004768
    26  H    2.920972   3.007274   2.167157   1.111153   2.083186
    27  H    2.765538   2.735867   2.145169   1.109725   2.034728
    28  H    5.270331   6.086676   3.855282   3.297613   2.039683
    29  H    5.197608   5.652365   4.038236   3.177951   2.661281
    30  H    3.954244   4.630705   2.962212   2.785222   2.873153
    31  H    5.458762   6.276885   4.255228   3.985404   3.400521
    32  H    4.345135   5.496186   3.106607   3.452842   2.770675
    33  H    4.534391   5.751059   3.361162   3.855153   3.379144
    34  H    3.892455   5.290855   3.408789   4.673139   4.814916
                   16         17         18         19         20
    16  C    0.000000
    17  C    1.539592   0.000000
    18  C    1.534028   2.561039   0.000000
    19  C    2.507927   3.228156   1.501483   0.000000
    20  C    3.797118   4.376264   2.501454   1.397978   0.000000
    21  H   10.116451  10.532733   8.951083   7.615799   6.482301
    22  H   10.044723  10.195934   8.948346   7.610202   6.476889
    23  H   10.722770  11.026445   9.458236   8.243675   6.965271
    24  H    6.431597   6.871970   5.036387   4.079836   2.684131
    25  H    4.918097   5.132553   5.148120   4.107580   4.848613
    26  H    2.771813   2.735525   3.551821   3.176792   4.399338
    27  H    3.282758   3.977184   3.796435   3.313645   4.489463
    28  H    1.111938   2.134564   2.139304   3.425147   4.618545
    29  H    2.182626   1.110362   3.512921   4.143201   5.373853
    30  H    2.203667   1.110305   2.790385   2.933423   3.944658
    31  H    2.182506   1.110863   2.866717   3.766631   4.710247
    32  H    2.166844   3.487129   1.111672   2.128268   2.892302
    33  H    2.180373   2.693843   1.112400   2.158359   2.703130
    34  H    4.158494   4.741002   2.688651   2.149342   1.084219
                   21         22         23         24         25
    21  H    0.000000
    22  H    1.821883   0.000000
    23  H    1.802875   1.802883   0.000000
    24  H    4.565040   4.563446   4.590072   0.000000
    25  H    8.154124   8.129829   9.353274   6.764291   0.000000
    26  H    9.531701   9.348658  10.417551   6.889733   2.529451
    27  H    9.239444   9.396596  10.335165   6.924355   2.253760
    28  H   11.019442  11.003931  11.583493   7.172306   5.907512
    29  H   11.398931  11.053267  11.969159   7.910662   5.270963
    30  H    9.764520   9.316603  10.253411   6.319520   4.535301
    31  H   10.950484  10.540392  11.278133   7.016020   6.169885
    32  H    9.116747   9.317204   9.664070   5.224657   5.682932
    33  H    9.130320   8.988427   9.427376   4.909501   5.986283
    34  H    6.740006   6.732235   6.986491   2.425452   5.919322
                   26         27         28         29         30
    26  H    0.000000
    27  H    1.786158   0.000000
    28  H    3.718856   4.065982   0.000000
    29  H    2.749958   4.067622   2.525532   0.000000
    30  H    2.387370   3.866820   3.076818   1.809536   0.000000
    31  H    3.829444   5.040621   2.398612   1.801583   1.797766
    32  H    4.288957   4.108448   2.360632   4.323508   3.856497
    33  H    4.304209   4.819054   2.562176   3.755880   2.903311
    34  H    5.265132   5.401949   4.797414   5.810627   4.440074
                   31         32         33         34
    31  H    0.000000
    32  H    3.744282   0.000000
    33  H    2.565994   1.798117   0.000000
    34  H    4.839258   2.915865   2.526438   0.000000
 Stoichiometry    C15H14O5
 Framework group  C1[X(C15H14O5)]
 Deg. of freedom    96
 Full point group                 C1      NOp   1
 Largest Abelian subgroup         C1      NOp   1
 Largest concise Abelian subgroup C1      NOp   1
                         Standard orientation:                         
 ---------------------------------------------------------------------
 Center     Atomic      Atomic             Coordinates (Angstroms)
 Number     Number       Type             X           Y           Z
 ---------------------------------------------------------------------
      1          8           0       -4.157579    1.116207    0.174312
      2          6           0       -3.052575    0.517979    0.076370
      3          6           0       -1.798380    1.285078    0.046663
      4          8           0       -1.839401    2.543223    0.116522
      5          6           0       -3.017422   -0.952447   -0.009311
      6          8           0       -4.241801   -1.642240    0.020719
      7          6           0       -5.522753   -1.028037    0.129827
      8          6           0       -1.834363   -1.588072   -0.112233
      9          6           0       -0.544883   -0.853332   -0.142475
     10          6           0       -0.509078    0.555775   -0.068772
     11          6           0        0.735789    1.227307   -0.099776
     12          8           0        0.762119    2.621184    0.018554
     13          6           0        1.934852    0.485570   -0.238529
     14          6           0        3.283849    1.180372   -0.276212
     15          8           0        4.355094    0.351001   -0.700502
     16          6           0        4.378949   -0.899672   -0.032766
     17          6           0        4.588983   -0.769512    1.486868
     18          6           0        3.139977   -1.728782   -0.394383
     19          6           0        1.881908   -0.919422   -0.265349
     20          6           0        0.648161   -1.576228   -0.236738
     21          1           0       -5.698331   -0.353961   -0.735057
     22          1           0       -5.594132   -0.459105    1.080802
     23          1           0       -6.303366   -1.816073    0.128956
     24          1           0       -1.803223   -2.667743   -0.174575
     25          1           0        1.612772    3.165418    0.072088
     26          1           0        3.512149    1.624249    0.716518
     27          1           0        3.227555    2.017627   -1.002382
     28          1           0        5.261477   -1.454521   -0.419668
     29          1           0        5.435715   -0.081359    1.692768
     30          1           0        3.677489   -0.386833    1.992351
     31          1           0        4.831551   -1.763365    1.919801
     32          1           0        3.227569   -2.066371   -1.449928
     33          1           0        3.087709   -2.633571    0.250645
     34          1           0        0.619546   -2.658843   -0.288264
 ---------------------------------------------------------------------
 Rotational constants (GHZ):           0.8335122           0.1845529           0.1564437
 Standard basis: 6-31G(d) (6D, 7F)
 There are   328 symmetry adapted cartesian basis functions of A   symmetry.
 There are   328 symmetry adapted basis functions of A   symmetry.
   328 basis functions,   616 primitive gaussians,   328 cartesian basis functions
    72 alpha electrons       72 beta electrons
       nuclear repulsion energy      1527.8945450676 Hartrees.
 NAtoms=   34 NActive=   34 NUniq=   34 SFac= 1.00D+00 NAtFMM=   60 NAOKFM=F Big=F
 Integral buffers will be    131072 words long.
 Raffenetti 2 integral format.
 Two-electron integral symmetry is turned on.
 One-electron integrals computed using PRISM.
 NBasis=   328 RedAO= T EigKep=  2.32D-04  NBF=   328
 NBsUse=   328 1.00D-06 EigRej= -1.00D+00 NBFU=   328
 ExpMin= 1.61D-01 ExpMax= 5.48D+03 ExpMxC= 8.25D+02 IAcc=3 IRadAn=         5 AccDes= 0.00D+00
 Harris functional with IExCor=  402 and IRadAn=       5 diagonalized for initial guess.
 HarFok:  IExCor=  402 AccDes= 0.00D+00 IRadAn=         5 IDoV= 1 UseB2=F ITyADJ=14
 ICtDFT=  3500011 ScaDFX=  1.000000  1.000000  1.000000  1.000000
 FoFCou: FMM=F IPFlag=           0 FMFlag=      100000 FMFlg1=           0
         NFxFlg=           0 DoJE=T BraDBF=F KetDBF=T FulRan=T
         wScrn=  0.000000 ICntrl=       500 IOpCl=  0 I1Cent=   200000004 NGrid=           0
         NMat0=    1 NMatS0=      1 NMatT0=    0 NMatD0=    1 NMtDS0=    0 NMtDT0=    0
 Petite list used in FoFCou.
 Requested convergence on RMS density matrix=1.00D-08 within 128 cycles.
 Requested convergence on MAX density matrix=1.00D-06.
 Requested convergence on             energy=1.00D-06.
 No special actions if energy rises.
 Integral accuracy reduced to 1.0D-05 until final iterations.
 Initial convergence to 1.0D-05 achieved.  Increase integral accuracy.
 SCF Done:  E(RB3LYP) =  -956.065633246     A.U. after   16 cycles
            NFock= 16  Conv=0.69D-08     -V/T= 2.0097

 **********************************************************************

            Population analysis using the SCF density.

 **********************************************************************

 Orbital symmetries:
       Occupied  (A) (A) (A) (A) (A) (A) (A) (A) (A) (A) (A) (A)
                 (A) (A) (A) (A) (A) (A) (A) (A) (A) (A) (A) (A)
                 (A) (A) (A) (A) (A) (A) (A) (A) (A) (A) (A) (A)
                 (A) (A) (A) (A) (A) (A) (A) (A) (A) (A) (A) (A)
                 (A) (A) (A) (A) (A) (A) (A) (A) (A) (A) (A) (A)
                 (A) (A) (A) (A) (A) (A) (A) (A) (A) (A) (A) (A)
       Virtual   (A) (A) (A) (A) (A) (A) (A) (A) (A) (A) (A) (A)
                 (A) (A) (A) (A) (A) (A) (A) (A) (A) (A) (A) (A)
                 (A) (A) (A) (A) (A) (A) (A) (A) (A) (A) (A) (A)
                 (A) (A) (A) (A) (A) (A) (A) (A) (A) (A) (A) (A)
                 (A) (A) (A) (A) (A) (A) (A) (A) (A) (A) (A) (A)
                 (A) (A) (A) (A) (A) (A) (A) (A) (A) (A) (A) (A)
                 (A) (A) (A) (A) (A) (A) (A) (A) (A) (A) (A) (A)
                 (A) (A) (A) (A) (A) (A) (A) (A) (A) (A) (A) (A)
                 (A) (A) (A) (A) (A) (A) (A) (A) (A) (A) (A) (A)
                 (A) (A) (A) (A) (A) (A) (A) (A) (A) (A) (A) (A)
                 (A) (A) (A) (A) (A) (A) (A) (A) (A) (A) (A) (A)
                 (A) (A) (A) (A) (A) (A) (A) (A) (A) (A) (A) (A)
                 (A) (A) (A) (A) (A) (A) (A) (A) (A) (A) (A) (A)
                 (A) (A) (A) (A) (A) (A) (A) (A) (A) (A) (A) (A)
                 (A) (A) (A) (A) (A) (A) (A) (A) (A) (A) (A) (A)
                 (A) (A) (A) (A) (A) (A) (A) (A) (A) (A) (A) (A)
                 (A) (A) (A) (A) (A) (A) (A) (A) (A) (A) (A) (A)
                 (A) (A) (A) (A) (A) (A) (A) (A) (A) (A) (A) (A)
                 (A) (A) (A) (A) (A) (A) (A) (A) (A) (A) (A) (A)
                 (A) (A) (A) (A) (A) (A) (A) (A) (A) (A) (A) (A)
                 (A) (A) (A) (A) (A) (A) (A) (A) (A) (A) (A) (A)
                 (A) (A) (A) (A)
 The electronic state is 1-A.
 Alpha  occ. eigenvalues --  -19.19369 -19.17809 -19.16592 -19.15297 -19.14188
 Alpha  occ. eigenvalues --  -10.28567 -10.28545 -10.27880 -10.26762 -10.26011
 Alpha  occ. eigenvalues --  -10.25339 -10.23214 -10.22781 -10.22294 -10.21559
 Alpha  occ. eigenvalues --  -10.21528 -10.21251 -10.20764 -10.20379 -10.19470
 Alpha  occ. eigenvalues --   -1.05831  -1.05463  -1.05015  -1.03207  -1.00442
 Alpha  occ. eigenvalues --   -0.88594  -0.83760  -0.80673  -0.77847  -0.76711
 Alpha  occ. eigenvalues --   -0.72431  -0.71022  -0.68912  -0.67275  -0.63660
 Alpha  occ. eigenvalues --   -0.62247  -0.60247  -0.56848  -0.55826  -0.52095
 Alpha  occ. eigenvalues --   -0.51857  -0.50909  -0.50469  -0.48211  -0.47775
 Alpha  occ. eigenvalues --   -0.46348  -0.45814  -0.44457  -0.44100  -0.43457
 Alpha  occ. eigenvalues --   -0.43155  -0.42447  -0.42394  -0.41682  -0.40431
 Alpha  occ. eigenvalues --   -0.39764  -0.38962  -0.38412  -0.37637  -0.36546
 Alpha  occ. eigenvalues --   -0.36172  -0.35380  -0.35107  -0.33471  -0.32943
 Alpha  occ. eigenvalues --   -0.31519  -0.27903  -0.27174  -0.26829  -0.24552
 Alpha  occ. eigenvalues --   -0.23988  -0.21938
 Alpha virt. eigenvalues --   -0.11740  -0.03330  -0.01150   0.02651   0.03183
 Alpha virt. eigenvalues --    0.07281   0.08449   0.08732   0.10366   0.11537
 Alpha virt. eigenvalues --    0.11903   0.12806   0.13080   0.13860   0.14230
 Alpha virt. eigenvalues --    0.15422   0.15991   0.16636   0.16990   0.17688
 Alpha virt. eigenvalues --    0.17936   0.18737   0.20060   0.21356   0.21822
 Alpha virt. eigenvalues --    0.22364   0.23457   0.23861   0.25228   0.26943
 Alpha virt. eigenvalues --    0.27969   0.29349   0.33204   0.33954   0.34851
 Alpha virt. eigenvalues --    0.37998   0.38421   0.40693   0.44293   0.46298
 Alpha virt. eigenvalues --    0.47084   0.48543   0.48793   0.49435   0.50425
 Alpha virt. eigenvalues --    0.52019   0.52632   0.53512   0.54028   0.54290
 Alpha virt. eigenvalues --    0.55084   0.55499   0.56632   0.57153   0.57321
 Alpha virt. eigenvalues --    0.57993   0.59961   0.60644   0.61066   0.62403
 Alpha virt. eigenvalues --    0.63008   0.63793   0.64379   0.65229   0.66333
 Alpha virt. eigenvalues --    0.67381   0.68052   0.69075   0.70067   0.70410
 Alpha virt. eigenvalues --    0.72067   0.74058   0.75556   0.76560   0.79169
 Alpha virt. eigenvalues --    0.79510   0.80935   0.81719   0.83227   0.83775
 Alpha virt. eigenvalues --    0.83987   0.84279   0.84567   0.85385   0.86105
 Alpha virt. eigenvalues --    0.86319   0.86863   0.87359   0.88032   0.88520
 Alpha virt. eigenvalues --    0.91207   0.92008   0.92385   0.93077   0.94661
 Alpha virt. eigenvalues --    0.95919   0.96863   0.97336   0.97945   0.99148
 Alpha virt. eigenvalues --    0.99997   1.00988   1.02565   1.03730   1.04331
 Alpha virt. eigenvalues --    1.06480   1.09257   1.10701   1.11519   1.11795
 Alpha virt. eigenvalues --    1.12360   1.15473   1.15708   1.17061   1.19969
 Alpha virt. eigenvalues --    1.20524   1.22748   1.24340   1.25381   1.27222
 Alpha virt. eigenvalues --    1.30820   1.31506   1.34192   1.34765   1.35074
 Alpha virt. eigenvalues --    1.36396   1.37959   1.37997   1.40468   1.42418
 Alpha virt. eigenvalues --    1.43078   1.45613   1.49017   1.49348   1.52165
 Alpha virt. eigenvalues --    1.54089   1.55285   1.56474   1.59944   1.61410
 Alpha virt. eigenvalues --    1.64202   1.65410   1.66235   1.69447   1.70367
 Alpha virt. eigenvalues --    1.71000   1.71949   1.73866   1.74018   1.75647
 Alpha virt. eigenvalues --    1.76081   1.76842   1.77437   1.78134   1.79772
 Alpha virt. eigenvalues --    1.80313   1.81459   1.83023   1.84244   1.85353
 Alpha virt. eigenvalues --    1.86290   1.88003   1.88549   1.89090   1.90734
 Alpha virt. eigenvalues --    1.91452   1.92849   1.93126   1.93842   1.95407
 Alpha virt. eigenvalues --    1.96153   1.97006   2.00239   2.01544   2.03305
 Alpha virt. eigenvalues --    2.04071   2.04720   2.06722   2.11258   2.11561
 Alpha virt. eigenvalues --    2.13735   2.14039   2.14321   2.16337   2.18819
 Alpha virt. eigenvalues --    2.19361   2.20826   2.22027   2.23223   2.25817
 Alpha virt. eigenvalues --    2.26226   2.26851   2.27981   2.30449   2.31416
 Alpha virt. eigenvalues --    2.32249   2.33679   2.34982   2.36236   2.37412
 Alpha virt. eigenvalues --    2.38135   2.39465   2.41348   2.42787   2.44666
 Alpha virt. eigenvalues --    2.47369   2.49797   2.51978   2.53694   2.55516
 Alpha virt. eigenvalues --    2.57458   2.61433   2.63350   2.63789   2.67168
 Alpha virt. eigenvalues --    2.68725   2.69856   2.72390   2.74024   2.76115
 Alpha virt. eigenvalues --    2.77223   2.81251   2.82140   2.85978   2.88841
 Alpha virt. eigenvalues --    2.90802   2.93531   2.96229   2.97427   2.99068
 Alpha virt. eigenvalues --    3.05715   3.09515   3.13891   3.21953   3.36481
 Alpha virt. eigenvalues --    3.45395   3.83212   3.96720   3.99303   4.04249
 Alpha virt. eigenvalues --    4.06677   4.11541   4.15225   4.18941   4.20628
 Alpha virt. eigenvalues --    4.22698   4.25809   4.32461   4.34920   4.42723
 Alpha virt. eigenvalues --    4.46136   4.49951   4.56912   4.62307   4.83308
 Alpha virt. eigenvalues --    5.14298
          Condensed to atoms (all electrons):
               1          2          3          4          5          6
     1  O    8.122402   0.485407  -0.063094  -0.005545  -0.076283  -0.007359
     2  C    0.485407   4.976944   0.165348  -0.070056   0.243155  -0.035812
     3  C   -0.063094   0.165348   4.985958   0.532157  -0.057553   0.003343
     4  O   -0.005545  -0.070056   0.532157   8.075306   0.003625  -0.000008
     5  C   -0.076283   0.243155  -0.057553   0.003625   4.836372   0.266186
     6  O   -0.007359  -0.035812   0.003343  -0.000008   0.266186   8.229840
     7  C   -0.007836  -0.006098   0.000547   0.000001  -0.029361   0.233135
     8  C    0.005140  -0.026779  -0.035115  -0.000122   0.482042  -0.054286
     9  C   -0.000061  -0.023474  -0.004221   0.004361   0.005134   0.001980
    10  C    0.004344  -0.087576   0.180098  -0.085458  -0.005225  -0.000018
    11  C   -0.000036   0.005823  -0.058714  -0.006096  -0.000597   0.000000
    12  O    0.000000   0.000096   0.004098  -0.012503  -0.000001  -0.000000
    13  C   -0.000000   0.000005   0.009168   0.000346  -0.000037   0.000000
    14  C   -0.000000   0.000001  -0.000092   0.000009  -0.000000   0.000000
    15  O    0.000000  -0.000000   0.000000   0.000000   0.000000  -0.000000
    16  C   -0.000000   0.000000  -0.000000   0.000000  -0.000000   0.000000
    17  C    0.000000  -0.000000   0.000000  -0.000000  -0.000000   0.000000
    18  C    0.000000  -0.000000   0.000002  -0.000000   0.000002  -0.000000
    19  C    0.000000  -0.000048  -0.000830  -0.000028  -0.000190   0.000000
    20  C   -0.000001  -0.000451   0.010502  -0.000025   0.006843  -0.000046
    21  H   -0.000830   0.000999  -0.000302   0.000001  -0.002437  -0.033713
    22  H   -0.000845   0.001048  -0.000295   0.000001  -0.002468  -0.033716
    23  H    0.002042   0.000380   0.000031  -0.000000   0.001758  -0.032283
    24  H   -0.000079   0.005858  -0.000686   0.000001  -0.031393   0.000646
    25  H   -0.000000   0.000009  -0.000344   0.000955  -0.000000   0.000000
    26  H    0.000000   0.000000   0.000001   0.000000  -0.000000   0.000000
    27  H    0.000000   0.000000   0.000002   0.000001  -0.000000   0.000000
    28  H    0.000000  -0.000000   0.000000   0.000000   0.000000  -0.000000
    29  H   -0.000000   0.000000  -0.000000   0.000000  -0.000000   0.000000
    30  H   -0.000000  -0.000000   0.000000   0.000000   0.000000  -0.000000
    31  H   -0.000000   0.000000  -0.000000  -0.000000  -0.000000  -0.000000
    32  H   -0.000000  -0.000000   0.000000  -0.000000  -0.000000   0.000000
    33  H    0.000000   0.000000   0.000000   0.000000   0.000000  -0.000000
    34  H   -0.000000   0.000034  -0.000121   0.000000   0.000265  -0.000002
               7          8          9         10         11         12
     1  O   -0.007836   0.005140  -0.000061   0.004344  -0.000036   0.000000
     2  C   -0.006098  -0.026779  -0.023474  -0.087576   0.005823   0.000096
     3  C    0.000547  -0.035115  -0.004221   0.180098  -0.058714   0.004098
     4  O    0.000001  -0.000122   0.004361  -0.085458  -0.006096  -0.012503
     5  C   -0.029361   0.482042   0.005134  -0.005225  -0.000597  -0.000001
     6  O    0.233135  -0.054286   0.001980  -0.000018   0.000000  -0.000000
     7  C    4.876870   0.003546  -0.000031  -0.000040  -0.000000   0.000000
     8  C    0.003546   5.269806   0.360223  -0.043536   0.010599  -0.000029
     9  C   -0.000031   0.360223   4.756102   0.448121  -0.032754   0.002404
    10  C   -0.000040  -0.043536   0.448121   5.348387   0.390833  -0.065769
    11  C   -0.000000   0.010599  -0.032754   0.390833   4.913114   0.314303
    12  O    0.000000  -0.000029   0.002404  -0.065769   0.314303   8.247978
    13  C    0.000000   0.000272  -0.043236  -0.066035   0.321420  -0.080720
    14  C    0.000000  -0.000001   0.000048   0.006529  -0.054663  -0.003372
    15  O   -0.000000   0.000000  -0.000006  -0.000049   0.002504   0.000078
    16  C   -0.000000   0.000002  -0.000188  -0.000010   0.000362   0.000005
    17  C   -0.000000  -0.000000   0.000000   0.000010  -0.000363   0.000002
    18  C    0.000000  -0.000248   0.005662   0.000404   0.007989  -0.000057
    19  C   -0.000000   0.006691   0.001457  -0.041127   0.018136   0.002556
    20  C    0.000002  -0.061652   0.466387  -0.027634  -0.082927   0.000214
    21  H    0.375577   0.000090   0.000001   0.000006   0.000000  -0.000000
    22  H    0.375468   0.000080   0.000003   0.000005   0.000000   0.000000
    23  H    0.358473  -0.000077   0.000001  -0.000001  -0.000000  -0.000000
    24  H   -0.000217   0.341763  -0.041345   0.004993  -0.000062   0.000000
    25  H   -0.000000   0.000002   0.000055   0.006263  -0.014352   0.228679
    26  H    0.000000  -0.000000   0.000031  -0.000159   0.004472   0.001426
    27  H    0.000000   0.000000   0.000031  -0.000129  -0.001965   0.004242
    28  H    0.000000  -0.000000   0.000002   0.000000   0.000009   0.000000
    29  H   -0.000000   0.000000   0.000000   0.000000  -0.000006   0.000000
    30  H    0.000000  -0.000000  -0.000026   0.000003  -0.000200  -0.000007
    31  H   -0.000000   0.000000   0.000000  -0.000000   0.000005   0.000000
    32  H   -0.000000   0.000002  -0.000222   0.000042  -0.000272   0.000001
    33  H    0.000000  -0.000002   0.000003   0.000016  -0.000032   0.000000
    34  H    0.000000  -0.006785  -0.042810   0.004231   0.000568   0.000003
              13         14         15         16         17         18
     1  O   -0.000000  -0.000000   0.000000  -0.000000   0.000000   0.000000
     2  C    0.000005   0.000001  -0.000000   0.000000  -0.000000  -0.000000
     3  C    0.009168  -0.000092   0.000000  -0.000000   0.000000   0.000002
     4  O    0.000346   0.000009   0.000000   0.000000  -0.000000  -0.000000
     5  C   -0.000037  -0.000000   0.000000  -0.000000  -0.000000   0.000002
     6  O    0.000000   0.000000  -0.000000   0.000000   0.000000  -0.000000
     7  C    0.000000   0.000000  -0.000000  -0.000000  -0.000000   0.000000
     8  C    0.000272  -0.000001   0.000000   0.000002  -0.000000  -0.000248
     9  C   -0.043236   0.000048  -0.000006  -0.000188   0.000000   0.005662
    10  C   -0.066035   0.006529  -0.000049  -0.000010   0.000010   0.000404
    11  C    0.321420  -0.054663   0.002504   0.000362  -0.000363   0.007989
    12  O   -0.080720  -0.003372   0.000078   0.000005   0.000002  -0.000057
    13  C    5.195839   0.273866  -0.021351  -0.008233  -0.006532  -0.046068
    14  C    0.273866   5.021639   0.242898  -0.036821  -0.005349  -0.034562
    15  O   -0.021351   0.242898   8.197814   0.260156  -0.052028  -0.043907
    16  C   -0.008233  -0.036821   0.260156   4.751934   0.350049   0.326763
    17  C   -0.006532  -0.005349  -0.052028   0.350049   5.202483  -0.062978
    18  C   -0.046068  -0.034562  -0.043907   0.326763  -0.062978   5.289702
    19  C    0.547653  -0.042384  -0.014607  -0.018566  -0.007064   0.334594
    20  C   -0.026821   0.009637   0.000092   0.003203   0.000289  -0.064650
    21  H   -0.000000  -0.000000  -0.000000  -0.000000   0.000000   0.000000
    22  H    0.000000   0.000000   0.000000   0.000000  -0.000000   0.000000
    23  H    0.000000   0.000000  -0.000000   0.000000  -0.000000  -0.000000
    24  H    0.000007  -0.000000  -0.000000   0.000000  -0.000000  -0.000007
    25  H   -0.014808   0.007924   0.000006   0.000015  -0.000001  -0.000005
    26  H   -0.056332   0.353831  -0.038614  -0.010052   0.010135   0.001196
    27  H   -0.039164   0.364315  -0.030340   0.006357  -0.000185  -0.000315
    28  H    0.000353   0.005648  -0.038261   0.386061  -0.054172  -0.048319
    29  H    0.000333  -0.000856   0.002220  -0.028059   0.365402   0.005528
    30  H    0.001993   0.002716  -0.002078  -0.031735   0.368400  -0.009116
    31  H    0.000116   0.000067   0.002876  -0.021206   0.355235  -0.000030
    32  H   -0.002880   0.000758   0.001268  -0.025933   0.005682   0.349990
    33  H    0.004106   0.000161   0.003208  -0.029362  -0.001141   0.345657
    34  H    0.005451  -0.000156   0.000007   0.000228  -0.000006  -0.007515
              19         20         21         22         23         24
     1  O    0.000000  -0.000001  -0.000830  -0.000845   0.002042  -0.000079
     2  C   -0.000048  -0.000451   0.000999   0.001048   0.000380   0.005858
     3  C   -0.000830   0.010502  -0.000302  -0.000295   0.000031  -0.000686
     4  O   -0.000028  -0.000025   0.000001   0.000001  -0.000000   0.000001
     5  C   -0.000190   0.006843  -0.002437  -0.002468   0.001758  -0.031393
     6  O    0.000000  -0.000046  -0.033713  -0.033716  -0.032283   0.000646
     7  C   -0.000000   0.000002   0.375577   0.375468   0.358473  -0.000217
     8  C    0.006691  -0.061652   0.000090   0.000080  -0.000077   0.341763
     9  C    0.001457   0.466387   0.000001   0.000003   0.000001  -0.041345
    10  C   -0.041127  -0.027634   0.000006   0.000005  -0.000001   0.004993
    11  C    0.018136  -0.082927   0.000000   0.000000  -0.000000  -0.000062
    12  O    0.002556   0.000214  -0.000000   0.000000  -0.000000   0.000000
    13  C    0.547653  -0.026821  -0.000000   0.000000   0.000000   0.000007
    14  C   -0.042384   0.009637  -0.000000   0.000000   0.000000  -0.000000
    15  O   -0.014607   0.000092  -0.000000   0.000000  -0.000000  -0.000000
    16  C   -0.018566   0.003203  -0.000000   0.000000   0.000000   0.000000
    17  C   -0.007064   0.000289   0.000000  -0.000000  -0.000000  -0.000000
    18  C    0.334594  -0.064650   0.000000   0.000000  -0.000000  -0.000007
    19  C    4.739261   0.447342   0.000000  -0.000000   0.000000   0.000258
    20  C    0.447342   5.268786  -0.000000  -0.000000  -0.000000  -0.008548
    21  H    0.000000  -0.000000   0.568590  -0.034274  -0.037878   0.000030
    22  H   -0.000000  -0.000000  -0.034274   0.569122  -0.037898   0.000030
    23  H    0.000000  -0.000000  -0.037878  -0.037898   0.598343  -0.000040
    24  H    0.000258  -0.008548   0.000030   0.000030  -0.000040   0.567995
    25  H   -0.000072  -0.000016   0.000000   0.000000   0.000000  -0.000000
    26  H   -0.006243  -0.000187   0.000000  -0.000000  -0.000000  -0.000000
    27  H    0.001552  -0.000132  -0.000000   0.000000   0.000000  -0.000000
    28  H    0.004232  -0.000165  -0.000000   0.000000  -0.000000  -0.000000
    29  H   -0.000059   0.000003  -0.000000   0.000000   0.000000   0.000000
    30  H    0.006367  -0.000179  -0.000000   0.000000  -0.000000  -0.000000
    31  H    0.000012  -0.000032   0.000000  -0.000000  -0.000000   0.000000
    32  H   -0.027263  -0.002769  -0.000000   0.000000   0.000000  -0.000000
    33  H   -0.032865  -0.005678   0.000000  -0.000000   0.000000  -0.000001
    34  H   -0.045275   0.354440   0.000000   0.000000  -0.000000   0.005401
              25         26         27         28         29         30
     1  O   -0.000000   0.000000   0.000000   0.000000  -0.000000  -0.000000
     2  C    0.000009   0.000000   0.000000  -0.000000   0.000000  -0.000000
     3  C   -0.000344   0.000001   0.000002   0.000000  -0.000000   0.000000
     4  O    0.000955   0.000000   0.000001   0.000000   0.000000   0.000000
     5  C   -0.000000  -0.000000  -0.000000   0.000000  -0.000000   0.000000
     6  O    0.000000   0.000000   0.000000  -0.000000   0.000000  -0.000000
     7  C   -0.000000   0.000000   0.000000   0.000000  -0.000000   0.000000
     8  C    0.000002  -0.000000   0.000000  -0.000000   0.000000  -0.000000
     9  C    0.000055   0.000031   0.000031   0.000002   0.000000  -0.000026
    10  C    0.006263  -0.000159  -0.000129   0.000000   0.000000   0.000003
    11  C   -0.014352   0.004472  -0.001965   0.000009  -0.000006  -0.000200
    12  O    0.228679   0.001426   0.004242   0.000000   0.000000  -0.000007
    13  C   -0.014808  -0.056332  -0.039164   0.000353   0.000333   0.001993
    14  C    0.007924   0.353831   0.364315   0.005648  -0.000856   0.002716
    15  O    0.000006  -0.038614  -0.030340  -0.038261   0.002220  -0.002078
    16  C    0.000015  -0.010052   0.006357   0.386061  -0.028059  -0.031735
    17  C   -0.000001   0.010135  -0.000185  -0.054172   0.365402   0.368400
    18  C   -0.000005   0.001196  -0.000315  -0.048319   0.005528  -0.009116
    19  C   -0.000072  -0.006243   0.001552   0.004232  -0.000059   0.006367
    20  C   -0.000016  -0.000187  -0.000132  -0.000165   0.000003  -0.000179
    21  H    0.000000   0.000000  -0.000000  -0.000000  -0.000000  -0.000000
    22  H    0.000000  -0.000000   0.000000   0.000000   0.000000   0.000000
    23  H    0.000000  -0.000000   0.000000  -0.000000   0.000000  -0.000000
    24  H   -0.000000  -0.000000  -0.000000  -0.000000   0.000000  -0.000000
    25  H    0.357571   0.001013   0.002858  -0.000000   0.000000  -0.000008
    26  H    0.001013   0.648163  -0.051023  -0.000215  -0.000123  -0.001485
    27  H    0.002858  -0.051023   0.589791  -0.000108  -0.000044   0.000141
    28  H   -0.000000  -0.000215  -0.000108   0.612975  -0.003467   0.005337
    29  H    0.000000  -0.000123  -0.000044  -0.003467   0.552893  -0.029486
    30  H   -0.000008  -0.001485   0.000141   0.005337  -0.029486   0.566381
    31  H    0.000000  -0.000277   0.000001  -0.002605  -0.024561  -0.028407
    32  H    0.000000  -0.000021   0.000076  -0.006843  -0.000162   0.000084
    33  H    0.000000   0.000155  -0.000003   0.001080  -0.000044   0.000029
    34  H   -0.000000   0.000003   0.000003  -0.000003  -0.000000   0.000003
              31         32         33         34
     1  O   -0.000000  -0.000000   0.000000  -0.000000
     2  C    0.000000  -0.000000   0.000000   0.000034
     3  C   -0.000000   0.000000   0.000000  -0.000121
     4  O   -0.000000  -0.000000   0.000000   0.000000
     5  C   -0.000000  -0.000000   0.000000   0.000265
     6  O   -0.000000   0.000000  -0.000000  -0.000002
     7  C   -0.000000  -0.000000   0.000000   0.000000
     8  C    0.000000   0.000002  -0.000002  -0.006785
     9  C    0.000000  -0.000222   0.000003  -0.042810
    10  C   -0.000000   0.000042   0.000016   0.004231
    11  C    0.000005  -0.000272  -0.000032   0.000568
    12  O    0.000000   0.000001   0.000000   0.000003
    13  C    0.000116  -0.002880   0.004106   0.005451
    14  C    0.000067   0.000758   0.000161  -0.000156
    15  O    0.002876   0.001268   0.003208   0.000007
    16  C   -0.021206  -0.025933  -0.029362   0.000228
    17  C    0.355235   0.005682  -0.001141  -0.000006
    18  C   -0.000030   0.349990   0.345657  -0.007515
    19  C    0.000012  -0.027263  -0.032865  -0.045275
    20  C   -0.000032  -0.002769  -0.005678   0.354440
    21  H    0.000000  -0.000000   0.000000   0.000000
    22  H   -0.000000   0.000000  -0.000000   0.000000
    23  H   -0.000000   0.000000   0.000000  -0.000000
    24  H    0.000000  -0.000000  -0.000001   0.005401
    25  H    0.000000   0.000000   0.000000  -0.000000
    26  H   -0.000277  -0.000021   0.000155   0.000003
    27  H    0.000001   0.000076  -0.000003   0.000003
    28  H   -0.002605  -0.006843   0.001080  -0.000003
    29  H   -0.024561  -0.000162  -0.000044  -0.000000
    30  H   -0.028407   0.000084   0.000029   0.000003
    31  H    0.567870  -0.000140   0.001730  -0.000001
    32  H   -0.000140   0.566212  -0.030103   0.001136
    33  H    0.001730  -0.030103   0.586928   0.004437
    34  H   -0.000001   0.001136   0.004437   0.593635
 Mulliken charges:
               1
     1  O   -0.457365
     2  C    0.365189
     3  C    0.330115
     4  O   -0.436923
     5  C    0.360163
     6  O   -0.537888
     7  C   -0.180036
     8  C   -0.251629
     9  C    0.136370
    10  C    0.028478
    11  C    0.262901
    12  O   -0.643627
    13  C    0.051289
    14  C   -0.111790
    15  O   -0.471885
    16  C    0.125030
    17  C   -0.467867
    18  C   -0.349712
    19  C    0.126506
    20  C   -0.285824
    21  H    0.164140
    22  H    0.163740
    23  H    0.147150
    24  H    0.155396
    25  H    0.424257
    26  H    0.144306
    27  H    0.154041
    28  H    0.138462
    29  H    0.160489
    30  H    0.151273
    31  H    0.149346
    32  H    0.171356
    33  H    0.151719
    34  H    0.132829
 Sum of Mulliken charges =  -0.00000
 Mulliken charges with hydrogens summed into heavy atoms:
               1
     1  O   -0.457365
     2  C    0.365189
     3  C    0.330115
     4  O   -0.436923
     5  C    0.360163
     6  O   -0.537888
     7  C    0.294995
     8  C   -0.096232
     9  C    0.136370
    10  C    0.028478
    11  C    0.262901
    12  O   -0.219371
    13  C    0.051289
    14  C    0.186558
    15  O   -0.471885
    16  C    0.263491
    17  C   -0.006759
    18  C   -0.026637
    19  C    0.126506
    20  C   -0.152995
 Electronic spatial extent (au):  <R**2>=           6682.6110
 Charge=              0.0000 electrons
 Dipole moment (field-independent basis, Debye):
    X=              4.3077    Y=             -3.2953    Z=              0.5942  Tot=              5.4561
 Quadrupole moment (field-independent basis, Debye-Ang):
   XX=           -112.6960   YY=           -114.0168   ZZ=           -114.4435
   XY=              9.3074   XZ=              4.6968   YZ=              0.0601
 Traceless Quadrupole moment (field-independent basis, Debye-Ang):
   XX=              1.0228   YY=             -0.2980   ZZ=             -0.7248
   XY=              9.3074   XZ=              4.6968   YZ=              0.0601
 Octapole moment (field-independent basis, Debye-Ang**2):
  XXX=            -39.4640  YYY=              7.0696  ZZZ=             -0.1062  XYY=             61.2280
  XXY=            -35.7646  XXZ=             20.2844  XZZ=            -11.6163  YZZ=              9.3267
  YYZ=             -3.2413  XYZ=              5.5435
 Hexadecapole moment (field-independent basis, Debye-Ang**3):
 XXXX=          -6613.6296 YYYY=          -1379.7504 ZZZZ=           -284.4358 XXXY=             68.1917
 XXXZ=             85.3321 YYYX=            114.7665 YYYZ=             -0.3408 ZZZX=            -20.7708
 ZZZY=              2.5322 XXYY=          -1385.6057 XXZZ=          -1186.4740 YYZZ=           -284.4819
 XXYZ=              0.3521 YYXZ=             -1.2269 ZZXY=             -7.5225
 N-N= 1.527894545068D+03 E-N=-5.284922520430D+03  KE= 9.468371598798D+02
 Calling FoFJK, ICntrl=      2127 FMM=F ISym2X=0 I1Cent= 0 IOpClX= 0 NMat=1 NMatS=1 NMatT=0.
 ***** Axes restored to original set *****
 -------------------------------------------------------------------
 Center     Atomic                   Forces (Hartrees/Bohr)
 Number     Number              X              Y              Z
 -------------------------------------------------------------------
      1        8          -0.043930795    0.007068973    0.026364221
      2        6           0.065586847   -0.011194200   -0.029167198
      3        6          -0.060751938    0.014681788   -0.050634911
      4        8           0.022891271   -0.006999286    0.045369192
      5        6           0.042560457   -0.007313071   -0.016472273
      6        8          -0.033454396    0.005338356    0.020788791
      7        6           0.004811607    0.000105947   -0.018162552
      8        6          -0.014826077    0.002896667    0.000478472
      9        6           0.012258982   -0.002531316    0.012817335
     10        6           0.005155787   -0.000097345   -0.016755004
     11        6          -0.030960359    0.003853404   -0.017727584
     12        8          -0.000801968    0.000520128    0.004559571
     13        6           0.000808573   -0.005803755    0.004907027
     14        6           0.000901985    0.004630679   -0.009994609
     15        8           0.003725559    0.001975207   -0.005166440
     16        6          -0.008704186   -0.008618077    0.022185197
     17        6          -0.000840481   -0.005012045   -0.002626926
     18        6          -0.002299401    0.003112264    0.004908979
     19        6           0.005680131    0.003205309   -0.007337336
     20        6           0.004051621   -0.001385116   -0.007447336
     21        1           0.001798581   -0.012981561    0.003516333
     22        1           0.006415306    0.010904805    0.004772556
     23        1          -0.013020746    0.002208486    0.005763319
     24        1           0.000621584   -0.000310668    0.002639836
     25        1           0.030934319   -0.004796711    0.031538569
     26        1           0.001879551    0.003593994    0.001188012
     27        1          -0.003105754   -0.004716526    0.006475742
     28        1           0.002262594    0.002182547   -0.011828504
     29        1           0.009247564   -0.000928634    0.003319777
     30        1          -0.006904672    0.002405443    0.006049520
     31        1           0.000151565    0.004466034   -0.008957296
     32        1          -0.001825480   -0.008032369   -0.001381766
     33        1          -0.001124169    0.008379886   -0.005577450
     34        1           0.000806534   -0.000809239    0.001594736
 -------------------------------------------------------------------
 Cartesian Forces:  Max     0.065586847 RMS     0.016467644

 GradGradGradGradGradGradGradGradGradGradGradGradGradGradGradGradGradGrad
 Berny optimization.
 FormGI is forming the generalized inverse of G from B-inverse, IUseBI=4.
 Internal  Forces:  Max     0.050403053 RMS     0.010515369
 Search for a local minimum.
 Step number   1 out of a maximum of  196
 All quantities printed in internal units (Hartrees-Bohrs-Radians)
 Mixed Optimization -- RFO/linear search
 Second derivative matrix not updated -- first step.
 ITU=  0
     Eigenvalues ---    0.00242   0.00638   0.01044   0.01069   0.01083
     Eigenvalues ---    0.01138   0.01287   0.01364   0.01456   0.01553
     Eigenvalues ---    0.01569   0.01617   0.01703   0.01715   0.01835
     Eigenvalues ---    0.01855   0.01872   0.01883   0.02013   0.02114
     Eigenvalues ---    0.02199   0.03684   0.04620   0.05036   0.05446
     Eigenvalues ---    0.05449   0.05656   0.06215   0.06898   0.07502
     Eigenvalues ---    0.09185   0.09420   0.10215   0.10412   0.11829
     Eigenvalues ---    0.12131   0.15719   0.16000   0.16000   0.16000
     Eigenvalues ---    0.16000   0.16000   0.16000   0.16000   0.16000
     Eigenvalues ---    0.16000   0.17645   0.20875   0.23350   0.23688
     Eigenvalues ---    0.24311   0.24956   0.24993   0.24999   0.24999
     Eigenvalues ---    0.25000   0.25000   0.25000   0.25000   0.25000
     Eigenvalues ---    0.28292   0.28555   0.30072   0.31480   0.32347
     Eigenvalues ---    0.32396   0.32424   0.32478   0.32509   0.32546
     Eigenvalues ---    0.32551   0.32562   0.32568   0.32629   0.32683
     Eigenvalues ---    0.32871   0.33342   0.34681   0.35362   0.35489
     Eigenvalues ---    0.35764   0.38082   0.40448   0.40649   0.41170
     Eigenvalues ---    0.41749   0.43009   0.43517   0.44699   0.44929
     Eigenvalues ---    0.45678   0.45760   0.45764   0.54053   0.79388
     Eigenvalues ---    0.79524
 RFO step:  Lambda=-5.35111833D-02 EMin= 2.42221039D-03
 Linear search not attempted -- first point.
 Maximum step size (   0.300) exceeded in Quadratic search.
    -- Step size scaled by   0.744
 Iteration  1 RMS(Cart)=  0.10408056 RMS(Int)=  0.00591919
 Iteration  2 RMS(Cart)=  0.00975573 RMS(Int)=  0.00011999
 Iteration  3 RMS(Cart)=  0.00005956 RMS(Int)=  0.00011717
 Iteration  4 RMS(Cart)=  0.00000002 RMS(Int)=  0.00011717
 Variable       Old X    -DE/DX   Delta X   Delta X   Delta X     New X
                                 (Linear)    (Quad)   (Total)
    R1        2.38173  -0.04955   0.00000  -0.04343  -0.04343   2.33830
    R2        2.77881   0.03376   0.00000   0.06269   0.06270   2.84152
    R3        2.78421   0.01235   0.00000   0.02365   0.02370   2.80791
    R4        2.38247  -0.05040   0.00000  -0.04425  -0.04425   2.33822
    R5        2.80769  -0.00471   0.00000  -0.00852  -0.00856   2.79914
    R6        2.65627  -0.03030   0.00000  -0.04504  -0.04504   2.61123
    R7        2.54534   0.00559   0.00000   0.00653   0.00656   2.55191
    R8        2.69244   0.00286   0.00000   0.00452   0.00452   2.69695
    R9        2.09856  -0.01269   0.00000  -0.02491  -0.02491   2.07365
   R10        2.09847  -0.01264   0.00000  -0.02481  -0.02481   2.07366
   R11        2.09611  -0.00926   0.00000  -0.01812  -0.01812   2.07800
   R12        2.80516  -0.01708   0.00000  -0.03376  -0.03377   2.77139
   R13        2.04453   0.00273   0.00000   0.00493   0.00493   2.04946
   R14        2.66732   0.00402   0.00000   0.00547   0.00543   2.67275
   R15        2.64212  -0.00295   0.00000  -0.00391  -0.00393   2.63819
   R16        2.67355  -0.00351   0.00000  -0.00544  -0.00542   2.66813
   R17        2.64399  -0.04421   0.00000  -0.06435  -0.06435   2.57964
   R18        2.67727  -0.00764   0.00000  -0.01215  -0.01213   2.66514
   R19        1.91102  -0.03806   0.00000  -0.05541  -0.05541   1.85562
   R20        2.86838  -0.00031   0.00000  -0.00196  -0.00197   2.86641
   R21        2.65742  -0.00765   0.00000  -0.01264  -0.01265   2.64476
   R22        2.68277  -0.00330   0.00000  -0.00522  -0.00521   2.67757
   R23        2.09978  -0.00418   0.00000  -0.00821  -0.00821   2.09156
   R24        2.09708  -0.00752   0.00000  -0.01473  -0.01473   2.08235
   R25        2.67957   0.00358   0.00000   0.00664   0.00666   2.68622
   R26        2.90941  -0.00102   0.00000  -0.00225  -0.00225   2.90716
   R27        2.89889   0.00139   0.00000   0.00419   0.00420   2.90309
   R28        2.10126  -0.00954   0.00000  -0.01879  -0.01879   2.08246
   R29        2.09828  -0.00982   0.00000  -0.01928  -0.01928   2.07900
   R30        2.09817  -0.00918   0.00000  -0.01800  -0.01800   2.08017
   R31        2.09923  -0.00998   0.00000  -0.01962  -0.01962   2.07961
   R32        2.83739   0.00781   0.00000   0.01554   0.01553   2.85292
   R33        2.10076  -0.00803   0.00000  -0.01581  -0.01581   2.08495
   R34        2.10213  -0.00994   0.00000  -0.01962  -0.01962   2.08252
   R35        2.64180   0.00218   0.00000   0.00323   0.00321   2.64500
   R36        2.04888   0.00186   0.00000   0.00339   0.00339   2.05226
    A1        2.09641  -0.01408   0.00000  -0.03611  -0.03614   2.06027
    A2        2.09341   0.02127   0.00000   0.05052   0.05049   2.14390
    A3        2.09336  -0.00719   0.00000  -0.01441  -0.01435   2.07901
    A4        2.08485  -0.01048   0.00000  -0.02682  -0.02681   2.05805
    A5        2.07789  -0.00176   0.00000  -0.00203  -0.00207   2.07582
    A6        2.12044   0.01224   0.00000   0.02886   0.02887   2.14931
    A7        2.05752   0.04461   0.00000   0.10912   0.10908   2.16660
    A8        2.09021  -0.00532   0.00000  -0.01257  -0.01248   2.07773
    A9        2.13545  -0.03929   0.00000  -0.09655  -0.09659   2.03886
   A10        2.18121   0.02392   0.00000   0.05863   0.05863   2.23985
   A11        1.92215   0.00928   0.00000   0.03396   0.03360   1.95576
   A12        1.92222   0.00926   0.00000   0.03389   0.03353   1.95575
   A13        1.90328  -0.02048   0.00000  -0.07452  -0.07428   1.82899
   A14        1.92390  -0.00380   0.00000  -0.00721  -0.00801   1.91589
   A15        1.89585   0.00265   0.00000   0.00610   0.00634   1.90219
   A16        1.89592   0.00265   0.00000   0.00609   0.00632   1.90224
   A17        2.13053   0.00984   0.00000   0.02355   0.02358   2.15411
   A18        2.09510  -0.00478   0.00000  -0.01127  -0.01129   2.08381
   A19        2.05755  -0.00506   0.00000  -0.01228  -0.01229   2.04526
   A20        2.11193   0.00282   0.00000   0.00277   0.00273   2.11466
   A21        2.07910  -0.00363   0.00000  -0.00709  -0.00704   2.07206
   A22        2.09213   0.00081   0.00000   0.00432   0.00432   2.09645
   A23        2.06244   0.00161   0.00000   0.00269   0.00259   2.06503
   A24        2.13207   0.00660   0.00000   0.01708   0.01712   2.14919
   A25        2.08866  -0.00821   0.00000  -0.01976  -0.01971   2.06895
   A26        2.08011  -0.00398   0.00000  -0.00900  -0.00902   2.07109
   A27        2.09248   0.00831   0.00000   0.01889   0.01891   2.11139
   A28        2.11056  -0.00433   0.00000  -0.00984  -0.00986   2.10070
   A29        2.16091  -0.04381   0.00000  -0.15265  -0.15265   2.00826
   A30        2.11176  -0.00492   0.00000  -0.00966  -0.00968   2.10208
   A31        2.08643  -0.00007   0.00000  -0.00065  -0.00065   2.08578
   A32        2.08326   0.00505   0.00000   0.01084   0.01082   2.09407
   A33        1.99394  -0.00102   0.00000  -0.00379  -0.00375   1.99018
   A34        1.92120   0.00009   0.00000  -0.00007  -0.00010   1.92110
   A35        1.89285   0.00408   0.00000   0.01763   0.01762   1.91048
   A36        1.92341   0.00023   0.00000   0.00044   0.00041   1.92382
   A37        1.85821  -0.00261   0.00000  -0.01205  -0.01203   1.84618
   A38        1.86885  -0.00076   0.00000  -0.00208  -0.00212   1.86673
   A39        1.96842   0.00180   0.00000   0.01133   0.01132   1.97974
   A40        1.97418   0.00146   0.00000   0.00300   0.00299   1.97718
   A41        1.93063  -0.00313   0.00000  -0.01365  -0.01362   1.91701
   A42        1.86462  -0.00214   0.00000  -0.01821  -0.01813   1.84650
   A43        1.96985   0.00028   0.00000   0.00256   0.00250   1.97236
   A44        1.85183   0.00085   0.00000   0.01099   0.01087   1.86270
   A45        1.86430   0.00284   0.00000   0.01615   0.01599   1.88030
   A46        1.91714   0.00061   0.00000   0.00211   0.00210   1.91924
   A47        1.94605   0.00323   0.00000   0.01152   0.01151   1.95755
   A48        1.91647   0.00012   0.00000   0.00020   0.00019   1.91666
   A49        1.90498  -0.00186   0.00000  -0.00608  -0.00610   1.89888
   A50        1.89198  -0.00056   0.00000  -0.00245  -0.00245   1.88953
   A51        1.88619  -0.00169   0.00000  -0.00581  -0.00582   1.88037
   A52        1.94456   0.00155   0.00000   0.00748   0.00749   1.95205
   A53        1.90109   0.00023   0.00000  -0.00096  -0.00099   1.90010
   A54        1.91864  -0.00075   0.00000  -0.00075  -0.00075   1.91788
   A55        1.88737  -0.00036   0.00000   0.00210   0.00208   1.88945
   A56        1.92755   0.00025   0.00000  -0.00030  -0.00030   1.92725
   A57        1.88313  -0.00099   0.00000  -0.00807  -0.00807   1.87506
   A58        2.10442  -0.00415   0.00000  -0.01030  -0.01031   2.09411
   A59        2.09699  -0.00250   0.00000  -0.00688  -0.00691   2.09008
   A60        2.08054   0.00665   0.00000   0.01727   0.01730   2.09785
   A61        2.10775   0.00169   0.00000   0.00451   0.00446   2.11221
   A62        2.09088  -0.00117   0.00000  -0.00339  -0.00336   2.08753
   A63        2.08455  -0.00052   0.00000  -0.00112  -0.00110   2.08345
    D1       -0.00308  -0.00004   0.00000  -0.00047  -0.00046  -0.00355
    D2        3.14113  -0.00007   0.00000  -0.00061  -0.00060   3.14053
    D3        3.13788  -0.00003   0.00000  -0.00035  -0.00036   3.13752
    D4       -0.00110  -0.00006   0.00000  -0.00050  -0.00049  -0.00159
    D5        0.00124   0.00002   0.00000   0.00026   0.00028   0.00152
    D6       -3.14018  -0.00003   0.00000  -0.00018  -0.00018  -3.14035
    D7       -3.13972   0.00002   0.00000   0.00017   0.00020  -3.13952
    D8        0.00205  -0.00003   0.00000  -0.00026  -0.00026   0.00179
    D9       -0.00243   0.00015   0.00000   0.00128   0.00127  -0.00117
   D10       -3.13867  -0.00003   0.00000   0.00030   0.00029  -3.13839
   D11       -3.14135   0.00015   0.00000   0.00122   0.00122  -3.14013
   D12        0.00559  -0.00002   0.00000   0.00024   0.00024   0.00583
   D13       -0.00142  -0.00001   0.00000  -0.00003  -0.00003  -0.00145
   D14        3.14000   0.00004   0.00000   0.00043   0.00043   3.14042
   D15        0.00054   0.00003   0.00000   0.00024   0.00024   0.00078
   D16        3.14067   0.00007   0.00000   0.00055   0.00053   3.14120
   D17       -3.14087  -0.00003   0.00000  -0.00024  -0.00021  -3.14107
   D18       -0.00074   0.00001   0.00000   0.00007   0.00009  -0.00065
   D19        1.06303   0.00374   0.00000   0.01791   0.01871   1.08175
   D20       -1.06246  -0.00372   0.00000  -0.01774  -0.01854  -1.08100
   D21       -3.14137   0.00001   0.00000   0.00012   0.00012  -3.14125
   D22       -0.00426   0.00004   0.00000   0.00055   0.00055  -0.00371
   D23        3.12998   0.00019   0.00000   0.00172   0.00171   3.13169
   D24        3.13877   0.00000   0.00000   0.00025   0.00026   3.13903
   D25       -0.01018   0.00015   0.00000   0.00142   0.00142  -0.00876
   D26        0.00504  -0.00013   0.00000  -0.00130  -0.00130   0.00374
   D27        3.14141   0.00009   0.00000  -0.00023  -0.00025   3.14116
   D28       -3.12915  -0.00026   0.00000  -0.00243  -0.00243  -3.13158
   D29        0.00723  -0.00005   0.00000  -0.00136  -0.00138   0.00585
   D30       -3.13951  -0.00006   0.00000  -0.00178  -0.00179  -3.14130
   D31        0.00192  -0.00010   0.00000  -0.00117  -0.00115   0.00076
   D32       -0.00519   0.00010   0.00000  -0.00063  -0.00065  -0.00584
   D33        3.13624   0.00006   0.00000  -0.00002  -0.00001   3.13623
   D34        0.03126  -0.00074   0.00000  -0.00644  -0.00643   0.02483
   D35       -3.11913  -0.00006   0.00000  -0.00018  -0.00016  -3.11929
   D36       -3.10491  -0.00095   0.00000  -0.00751  -0.00748  -3.11238
   D37        0.02790  -0.00027   0.00000  -0.00124  -0.00121   0.02669
   D38        3.06184   0.00076   0.00000   0.00729   0.00723   3.06907
   D39       -0.07087   0.00000   0.00000   0.00080   0.00086  -0.07001
   D40        3.14044  -0.00091   0.00000  -0.00432  -0.00424   3.13620
   D41       -0.06493   0.00049   0.00000   0.00577   0.00578  -0.05914
   D42       -0.01010  -0.00021   0.00000   0.00206   0.00214  -0.00795
   D43        3.06772   0.00119   0.00000   0.01215   0.01217   3.07988
   D44       -2.91888  -0.00000   0.00000  -0.00105  -0.00107  -2.91995
   D45        1.18961   0.00039   0.00000   0.00128   0.00128   1.19089
   D46       -0.84970  -0.00111   0.00000  -0.00639  -0.00642  -0.85612
[...]
     5  C   -0.076793   0.216510  -0.063478   0.003704   4.880563   0.263798
     6  O   -0.002181  -0.041437   0.002342  -0.000008   0.263798   8.213005
     7  C    0.000686  -0.007321   0.000219  -0.000002  -0.033835   0.231700
     8  C    0.004333  -0.032234  -0.031434  -0.000072   0.495531  -0.057727
     9  C   -0.000019  -0.017359  -0.004244   0.003891   0.001484   0.002730
    10  C    0.004517  -0.087746   0.151118  -0.081421  -0.003582   0.000012
    11  C   -0.000039   0.004646  -0.064269  -0.005172  -0.000712   0.000001
    12  O    0.000000   0.000025   0.002363  -0.007463   0.000001  -0.000000
    13  C   -0.000000   0.000041   0.008907   0.000270  -0.000037   0.000000
    14  C   -0.000000   0.000001  -0.000091   0.000009  -0.000000   0.000000
    15  O    0.000000  -0.000000   0.000000  -0.000000   0.000000  -0.000000
    16  C   -0.000000   0.000000  -0.000000   0.000000   0.000000   0.000000
    17  C    0.000000  -0.000000   0.000000  -0.000000  -0.000000   0.000000
    18  C    0.000000  -0.000000   0.000002  -0.000000   0.000001  -0.000000
    19  C    0.000000  -0.000049  -0.000949  -0.000023  -0.000208   0.000000
    20  C   -0.000001  -0.000592   0.011364  -0.000027   0.007480  -0.000075
    21  H   -0.001047   0.001907  -0.000108   0.000001  -0.000434  -0.032509
    22  H    0.007327   0.001018  -0.000030   0.000001  -0.003456  -0.031542
    23  H    0.000694   0.000287   0.000019  -0.000000   0.001985  -0.035495
    24  H   -0.000082   0.005751  -0.000639   0.000001  -0.031936   0.001285
    25  H   -0.000000   0.000010  -0.000269   0.000560  -0.000000   0.000000
    26  H    0.000000  -0.000000  -0.000001   0.000000  -0.000000   0.000000
    27  H   -0.000000   0.000000   0.000002  -0.000000  -0.000000   0.000000
    28  H   -0.000000  -0.000000   0.000000   0.000000   0.000000  -0.000000
    29  H   -0.000000   0.000000  -0.000000   0.000000  -0.000000   0.000000
    30  H   -0.000000  -0.000000   0.000000   0.000000   0.000000  -0.000000
    31  H   -0.000000   0.000000  -0.000000  -0.000000  -0.000000  -0.000000
    32  H   -0.000000  -0.000000   0.000000  -0.000000   0.000000   0.000000
    33  H    0.000000   0.000000   0.000000   0.000000   0.000000  -0.000000
    34  H   -0.000000   0.000032  -0.000119   0.000000   0.000282  -0.000003
               7          8          9         10         11         12
     1  O    0.000686   0.004333  -0.000019   0.004517  -0.000039   0.000000
     2  C   -0.007321  -0.032234  -0.017359  -0.087746   0.004646   0.000025
     3  C    0.000219  -0.031434  -0.004244   0.151118  -0.064269   0.002363
     4  O   -0.000002  -0.000072   0.003891  -0.081421  -0.005172  -0.007463
     5  C   -0.033835   0.495531   0.001484  -0.003582  -0.000712   0.000001
     6  O    0.231700  -0.057727   0.002730   0.000012   0.000001  -0.000000
     7  C    4.904767   0.003518  -0.000062  -0.000035  -0.000000   0.000000
     8  C    0.003518   5.288050   0.352371  -0.042166   0.012731  -0.000055
     9  C   -0.000062   0.352371   4.731861   0.456213  -0.027002   0.002517
    10  C   -0.000035  -0.042166   0.456213   5.384182   0.384750  -0.066948
    11  C   -0.000000   0.012731  -0.027002   0.384750   4.934586   0.336939
    12  O    0.000000  -0.000055   0.002517  -0.066948   0.336939   8.179285
    13  C   -0.000000   0.000449  -0.040876  -0.079679   0.321968  -0.084232
    14  C    0.000000  -0.000002  -0.000063   0.007493  -0.052053  -0.003527
    15  O   -0.000000   0.000000  -0.000005  -0.000050   0.002472   0.000093
    16  C    0.000000   0.000002  -0.000174  -0.000018   0.000524   0.000002
    17  C   -0.000000  -0.000000   0.000001   0.000014  -0.000442   0.000003
    18  C    0.000000  -0.000248   0.005444   0.000476   0.008109  -0.000066
    19  C   -0.000000   0.007382   0.004029  -0.041084   0.019685   0.002398
    20  C    0.000003  -0.065523   0.459653  -0.029826  -0.089474   0.000447
    21  H    0.365196   0.000870  -0.000004  -0.000010  -0.000000  -0.000000
    22  H    0.374356  -0.000064   0.000011   0.000000   0.000000  -0.000000
    23  H    0.373566  -0.000105   0.000001  -0.000001  -0.000000  -0.000000
    24  H   -0.000259   0.339310  -0.041493   0.005360  -0.000089   0.000000
    25  H   -0.000000   0.000005   0.000040   0.007998  -0.019095   0.238537
    26  H   -0.000000   0.000000   0.000043  -0.000222   0.004356   0.001345
    27  H    0.000000   0.000000   0.000026  -0.000225  -0.001365   0.002328
    28  H    0.000000  -0.000000   0.000001   0.000000   0.000007   0.000000
    29  H    0.000000   0.000000   0.000000   0.000000  -0.000007   0.000000
    30  H    0.000000  -0.000000  -0.000041   0.000007  -0.000234  -0.000008
    31  H    0.000000   0.000000   0.000000  -0.000000   0.000007  -0.000000
    32  H    0.000000   0.000001  -0.000246   0.000047  -0.000323   0.000001
    33  H   -0.000000   0.000001   0.000049  -0.000000  -0.000013   0.000000
    34  H    0.000000  -0.007022  -0.043657   0.004136   0.000652   0.000003
              13         14         15         16         17         18
     1  O   -0.000000  -0.000000   0.000000  -0.000000   0.000000   0.000000
     2  C    0.000041   0.000001  -0.000000   0.000000  -0.000000  -0.000000
     3  C    0.008907  -0.000091   0.000000  -0.000000   0.000000   0.000002
     4  O    0.000270   0.000009  -0.000000   0.000000  -0.000000  -0.000000
     5  C   -0.000037  -0.000000   0.000000   0.000000  -0.000000   0.000001
     6  O    0.000000   0.000000  -0.000000   0.000000   0.000000  -0.000000
     7  C   -0.000000   0.000000  -0.000000   0.000000  -0.000000   0.000000
     8  C    0.000449  -0.000002   0.000000   0.000002  -0.000000  -0.000248
     9  C   -0.040876  -0.000063  -0.000005  -0.000174   0.000001   0.005444
    10  C   -0.079679   0.007493  -0.000050  -0.000018   0.000014   0.000476
    11  C    0.321968  -0.052053   0.002472   0.000524  -0.000442   0.008109
    12  O   -0.084232  -0.003527   0.000093   0.000002   0.000003  -0.000066
    13  C    5.217328   0.261423  -0.019797  -0.006151  -0.007177  -0.047912
    14  C    0.261423   5.027540   0.244943  -0.036364  -0.004153  -0.033913
    15  O   -0.019797   0.244943   8.220455   0.253130  -0.050048  -0.044345
    16  C   -0.006151  -0.036364   0.253130   4.743428   0.353889   0.333681
    17  C   -0.007177  -0.004153  -0.050048   0.353889   5.187373  -0.060760
    18  C   -0.047912  -0.033913  -0.044345   0.333681  -0.060760   5.270423
    19  C    0.560481  -0.040908  -0.016561  -0.018821  -0.007203   0.337355
    20  C   -0.031426   0.009883   0.000090   0.002754   0.000417  -0.060295
    21  H    0.000000  -0.000000  -0.000000  -0.000000   0.000000   0.000000
    22  H   -0.000000   0.000000  -0.000000   0.000000  -0.000000  -0.000000
    23  H    0.000000   0.000000  -0.000000   0.000000   0.000000  -0.000000
    24  H    0.000010  -0.000000  -0.000000   0.000000  -0.000000  -0.000008
    25  H   -0.024534   0.015632  -0.000114   0.000034  -0.000002  -0.000007
    26  H   -0.058031   0.350538  -0.037583  -0.008826   0.008489   0.001402
    27  H   -0.037611   0.367437  -0.033255   0.006422  -0.000247  -0.000464
    28  H    0.000351   0.005861  -0.041300   0.388601  -0.051975  -0.043936
    29  H    0.000297  -0.000642   0.001947  -0.027722   0.368304   0.005525
    30  H    0.002475   0.003126  -0.002627  -0.029595   0.371435  -0.009136
    31  H    0.000149  -0.000023   0.002989  -0.021363   0.356008  -0.000179
    32  H   -0.004039   0.000996   0.001269  -0.026467   0.005792   0.349746
    33  H    0.004975   0.000156   0.003488  -0.028851  -0.000833   0.344610
    34  H    0.005540  -0.000156   0.000006   0.000186  -0.000009  -0.007591
              19         20         21         22         23         24
     1  O    0.000000  -0.000001  -0.001047   0.007327   0.000694  -0.000082
     2  C   -0.000049  -0.000592   0.001907   0.001018   0.000287   0.005751
     3  C   -0.000949   0.011364  -0.000108  -0.000030   0.000019  -0.000639
     4  O   -0.000023  -0.000027   0.000001   0.000001  -0.000000   0.000001
     5  C   -0.000208   0.007480  -0.000434  -0.003456   0.001985  -0.031936
     6  O    0.000000  -0.000075  -0.032509  -0.031542  -0.035495   0.001285
     7  C   -0.000000   0.000003   0.365196   0.374356   0.373566  -0.000259
     8  C    0.007382  -0.065523   0.000870  -0.000064  -0.000105   0.339310
     9  C    0.004029   0.459653  -0.000004   0.000011   0.000001  -0.041493
    10  C   -0.041084  -0.029826  -0.000010   0.000000  -0.000001   0.005360
    11  C    0.019685  -0.089474  -0.000000   0.000000  -0.000000  -0.000089
    12  O    0.002398   0.000447  -0.000000  -0.000000  -0.000000   0.000000
    13  C    0.560481  -0.031426   0.000000  -0.000000   0.000000   0.000010
    14  C   -0.040908   0.009883  -0.000000   0.000000   0.000000  -0.000000
    15  O   -0.016561   0.000090  -0.000000  -0.000000  -0.000000  -0.000000
    16  C   -0.018821   0.002754  -0.000000   0.000000   0.000000   0.000000
    17  C   -0.007203   0.000417   0.000000  -0.000000   0.000000  -0.000000
    18  C    0.337355  -0.060295   0.000000  -0.000000  -0.000000  -0.000008
    19  C    4.727055   0.441272  -0.000000  -0.000000   0.000000   0.000310
    20  C    0.441272   5.302509  -0.000000  -0.000000  -0.000000  -0.009474
    21  H   -0.000000  -0.000000   0.583456  -0.038279  -0.032363   0.000053
    22  H   -0.000000  -0.000000  -0.038279   0.535051  -0.032249   0.000023
    23  H    0.000000  -0.000000  -0.032363  -0.032249   0.564743  -0.000072
    24  H    0.000310  -0.009474   0.000053   0.000023  -0.000072   0.574652
    25  H   -0.000031  -0.000051  -0.000000   0.000000   0.000000  -0.000000
    26  H   -0.005416  -0.000203   0.000000  -0.000000   0.000000  -0.000000
    27  H    0.000337  -0.000104  -0.000000   0.000000  -0.000000  -0.000000
    28  H    0.003947  -0.000138  -0.000000   0.000000  -0.000000  -0.000000
    29  H   -0.000018   0.000002  -0.000000   0.000000   0.000000   0.000000
    30  H    0.006176  -0.000094  -0.000000   0.000000  -0.000000  -0.000000
    31  H    0.000102  -0.000049  -0.000000   0.000000  -0.000000   0.000000
    32  H   -0.024418  -0.001153  -0.000000   0.000000  -0.000000  -0.000000
    33  H   -0.033884  -0.005750   0.000000  -0.000000   0.000000  -0.000001
    34  H   -0.043753   0.353082   0.000000  -0.000000  -0.000000   0.006106
              25         26         27         28         29         30
     1  O   -0.000000   0.000000  -0.000000  -0.000000  -0.000000  -0.000000
     2  C    0.000010  -0.000000   0.000000  -0.000000   0.000000  -0.000000
     3  C   -0.000269  -0.000001   0.000002   0.000000  -0.000000   0.000000
     4  O    0.000560   0.000000  -0.000000   0.000000   0.000000   0.000000
     5  C   -0.000000  -0.000000  -0.000000   0.000000  -0.000000   0.000000
     6  O    0.000000   0.000000   0.000000  -0.000000   0.000000  -0.000000
     7  C   -0.000000  -0.000000   0.000000   0.000000   0.000000   0.000000
     8  C    0.000005   0.000000   0.000000  -0.000000   0.000000  -0.000000
     9  C    0.000040   0.000043   0.000026   0.000001   0.000000  -0.000041
    10  C    0.007998  -0.000222  -0.000225   0.000000   0.000000   0.000007
    11  C   -0.019095   0.004356  -0.001365   0.000007  -0.000007  -0.000234
    12  O    0.238537   0.001345   0.002328   0.000000   0.000000  -0.000008
    13  C   -0.024534  -0.058031  -0.037611   0.000351   0.000297   0.002475
    14  C    0.015632   0.350538   0.367437   0.005861  -0.000642   0.003126
    15  O   -0.000114  -0.037583  -0.033255  -0.041300   0.001947  -0.002627
    16  C    0.000034  -0.008826   0.006422   0.388601  -0.027722  -0.029595
    17  C   -0.000002   0.008489  -0.000247  -0.051975   0.368304   0.371435
    18  C   -0.000007   0.001402  -0.000464  -0.043936   0.005525  -0.009136
    19  C   -0.000031  -0.005416   0.000337   0.003947  -0.000018   0.006176
    20  C   -0.000051  -0.000203  -0.000104  -0.000138   0.000002  -0.000094
    21  H   -0.000000   0.000000  -0.000000  -0.000000  -0.000000  -0.000000
    22  H    0.000000  -0.000000   0.000000   0.000000   0.000000   0.000000
    23  H    0.000000   0.000000  -0.000000  -0.000000   0.000000  -0.000000
    24  H   -0.000000  -0.000000  -0.000000  -0.000000   0.000000  -0.000000
    25  H    0.350971   0.001833   0.004009  -0.000001   0.000000  -0.000017
    26  H    0.001833   0.655570  -0.056539  -0.000243  -0.000168  -0.001056
    27  H    0.004009  -0.056539   0.588087  -0.000109  -0.000033   0.000128
    28  H   -0.000001  -0.000243  -0.000109   0.602015  -0.003743   0.005110
    29  H    0.000000  -0.000168  -0.000033  -0.003743   0.549167  -0.030397
    30  H   -0.000017  -0.001056   0.000128   0.005110  -0.030397   0.557584
    31  H    0.000000  -0.000266   0.000003  -0.001987  -0.025457  -0.029095
    32  H    0.000000  -0.000009   0.000080  -0.006406  -0.000164   0.000085
    33  H    0.000000   0.000123  -0.000005   0.000742  -0.000074   0.000046
    34  H   -0.000000   0.000003   0.000003  -0.000002  -0.000000   0.000006
              31         32         33         34
     1  O   -0.000000  -0.000000   0.000000  -0.000000
     2  C    0.000000  -0.000000   0.000000   0.000032
     3  C   -0.000000   0.000000   0.000000  -0.000119
     4  O   -0.000000  -0.000000   0.000000   0.000000
     5  C   -0.000000   0.000000   0.000000   0.000282
     6  O   -0.000000   0.000000  -0.000000  -0.000003
     7  C    0.000000   0.000000  -0.000000   0.000000
     8  C    0.000000   0.000001   0.000001  -0.007022
     9  C    0.000000  -0.000246   0.000049  -0.043657
    10  C   -0.000000   0.000047  -0.000000   0.004136
    11  C    0.000007  -0.000323  -0.000013   0.000652
    12  O   -0.000000   0.000001   0.000000   0.000003
    13  C    0.000149  -0.004039   0.004975   0.005540
    14  C   -0.000023   0.000996   0.000156  -0.000156
    15  O    0.002989   0.001269   0.003488   0.000006
    16  C   -0.021363  -0.026467  -0.028851   0.000186
    17  C    0.356008   0.005792  -0.000833  -0.000009
    18  C   -0.000179   0.349746   0.344610  -0.007591
    19  C    0.000102  -0.024418  -0.033884  -0.043753
    20  C   -0.000049  -0.001153  -0.005750   0.353082
    21  H   -0.000000  -0.000000   0.000000   0.000000
    22  H    0.000000   0.000000  -0.000000  -0.000000
    23  H   -0.000000  -0.000000   0.000000  -0.000000
    24  H    0.000000  -0.000000  -0.000001   0.006106
    25  H    0.000000   0.000000   0.000000  -0.000000
    26  H   -0.000266  -0.000009   0.000123   0.000003
    27  H    0.000003   0.000080  -0.000005   0.000003
    28  H   -0.001987  -0.006406   0.000742  -0.000002
    29  H   -0.025457  -0.000164  -0.000074  -0.000000
    30  H   -0.029095   0.000085   0.000046   0.000006
    31  H    0.565194  -0.000132   0.001479  -0.000001
    32  H   -0.000132   0.563526  -0.031923   0.000779
    33  H    0.001479  -0.031923   0.589566   0.005010
    34  H   -0.000001   0.000779   0.005010   0.595107
 Mulliken charges:
               1
     1  O   -0.439481
     2  C    0.352396
     3  C    0.322300
     4  O   -0.424280
     5  C    0.343131
     6  O   -0.513895
     7  C   -0.212499
     8  C   -0.267905
     9  C    0.154878
    10  C    0.026688
    11  C    0.228855
    12  O   -0.603987
    13  C    0.056839
    14  C   -0.123142
    15  O   -0.485198
    16  C    0.121700
    17  C   -0.468876
    18  C   -0.347912
    19  C    0.122797
    20  C   -0.294701
    21  H    0.153273
    22  H    0.187834
    23  H    0.158991
    24  H    0.151191
    25  H    0.424492
    26  H    0.144862
    27  H    0.161097
    28  H    0.143205
    29  H    0.163182
    30  H    0.156122
    31  H    0.152621
    32  H    0.172956
    33  H    0.151090
    34  H    0.131378
 Sum of Mulliken charges =  -0.00000
 Mulliken charges with hydrogens summed into heavy atoms:
               1
     1  O   -0.439481
     2  C    0.352396
     3  C    0.322300
     4  O   -0.424280
     5  C    0.343131
     6  O   -0.513895
     7  C    0.287598
     8  C   -0.116714
     9  C    0.154878
    10  C    0.026688
    11  C    0.228855
    12  O   -0.179495
    13  C    0.056839
    14  C    0.182817
    15  O   -0.485198
    16  C    0.264904
    17  C    0.003049
    18  C   -0.023866
    19  C    0.122797
    20  C   -0.163323
 Electronic spatial extent (au):  <R**2>=           6621.6561
 Charge=             -0.0000 electrons
 Dipole moment (field-independent basis, Debye):
    X=              4.0267    Y=             -3.8874    Z=             -0.3609  Tot=              5.6087
 Quadrupole moment (field-independent basis, Debye-Ang):
   XX=           -109.7485   YY=           -116.1991   ZZ=           -114.0984
   XY=             10.4125   XZ=              8.4578   YZ=              0.2415
 Traceless Quadrupole moment (field-independent basis, Debye-Ang):
   XX=              3.6002   YY=             -2.8504   ZZ=             -0.7497
   XY=             10.4125   XZ=              8.4578   YZ=              0.2415
 Octapole moment (field-independent basis, Debye-Ang**2):
  XXX=            -48.2127  YYY=             -7.8352  ZZZ=              0.7352  XYY=             53.8590
  XXY=            -46.7486  XXZ=             -3.4874  XZZ=             -7.7694  YZZ=              9.0818
  YYZ=             -5.6169  XYZ=              0.3648
 Hexadecapole moment (field-independent basis, Debye-Ang**3):
 XXXX=          -6416.7253 YYYY=          -1460.0514 ZZZZ=           -300.9794 XXXY=            117.5898
 XXXZ=            182.8916 YYYX=            105.9143 YYYZ=             -3.6150 ZZZX=            -21.2238
 ZZZY=              0.7229 XXYY=          -1346.8697 XXZZ=          -1165.3212 YYZZ=           -290.5333
 XXYZ=             11.9849 YYXZ=              0.9965 ZZXY=             -4.7276
 N-N= 1.531583988402D+03 E-N=-5.292625906781D+03  KE= 9.474709581798D+02
 1\1\GINC-C078\FOpt\RB3LYP\6-31G(d)\C15H14O5\XYCAO\28-Dec-2023\0\\# opt
  b3lyp/6-31g(d)\\molecule_5_1\\0,1\O,3.7862475454,-0.7165829408,-3.249
 6147793\C,3.0618094971,-0.4353490142,-2.3105301259\C,1.602705912,0.048
 7122312,-2.612439106\O,1.3305476975,0.2656372057,-3.7786593996\C,3.481
 9858695,-0.5357397288,-0.8942830857\O,4.7278939301,-0.9309883596,-0.53
 42978419\C,5.86311185,-0.5793854042,-1.3408656216\C,2.5606338202,-0.34
 08762313,0.0816602247\C,1.1671654705,-0.0012124732,-0.1573345213\C,0.6
 73462977,0.1987020311,-1.4745379123\C,-0.6862824364,0.5314290064,-1.64
 15717455\O,-1.1550938531,0.6997592476,-2.9018829561\C,-1.5409901091,0.
 6854379542,-0.526724379\C,-3.0042685865,1.0297524734,-0.7355632128\O,-
 3.7044445359,1.3473429008,0.4503988757\C,-3.4309512844,0.4809088714,1.
 5609328908\C,-3.8487427912,-0.9688286564,1.3008572539\C,-1.9557913897,
 0.6437840271,1.9514245857\C,-1.0383989135,0.4791751201,0.7591474721\C,
 0.308201748,0.1369829707,0.9330388256\H,5.8263891441,0.4739103295,-1.6
 391791425\H,5.9281485189,-1.2044510999,-2.2316869902\H,6.7279073521,-0
 .742967697,-0.6939919447\H,2.8790040884,-0.4624337995,1.1136929473\H,-
 2.1027468753,0.9011639493,-2.8812856487\H,-3.5078125547,0.2015486809,-
 1.2700968479\H,-3.1050462646,1.925065839,-1.3660432594\H,-4.0594950836
 ,0.8861832941,2.3603115015\H,-4.8825688178,-1.0041286845,0.9421042207\
 H,-3.2060161247,-1.4600773342,0.5623119433\H,-3.7888375661,-1.54840079
 ,2.2287977718\H,-1.8188053045,1.6488717426,2.3727179759\H,-1.682095882
 6,-0.0683713176,2.739583103\H,0.6911329528,-0.0251043442,1.9374989287\
 \Version=ES64L-G16RevA.03\State=1-A\HF=-956.095254\RMSD=4.605e-09\RMSF
 =7.300e-06\Dipole=-0.9990707,0.0805286,1.9658426\Quadrupole=8.621553,-
 1.8601784,-6.7613746,3.782871,5.0206882,-2.0530053\PG=C01 [X(C15H14O5)
 ]\\@


 WOMEN HOLD UP HALF THE SKY. -- MAO TSE TUNG
 Job cpu time:       0 days  3 hours 56 minutes 33.6 seconds.
 Elapsed time:       0 days  0 hours  7 minutes 33.2 seconds.
 File lengths (MBytes):  RWF=     73 Int=      0 D2E=      0 Chk=     10 Scr=      1
 Normal termination of Gaussian 16 at Thu Dec 28 10:06:18 2023.
