 Entering Gaussian System, Link 0=g16
 Input=molecule_2_1.com
 Output=molecule_2_1.log
 Initial command:
 /share/apps/g16/A03/l1.exe "/tmp/954039.tmpdir/scr/Gau-20412.inp" -scrdir="/tmp/954039.tmpdir/scr/"
 Entering Link 1 = /share/apps/g16/A03/l1.exe PID=     20413.
  
 Copyright (c) 1988,1990,1992,1993,1995,1998,2003,2009,2016,
            Gaussian, Inc.  All Rights Reserved.
  
 This is part of the Gaussian(R) 16 program.  It is based on
 the Gaussian(R) 09 system (copyright 2009, Gaussian, Inc.),
 the Gaussian(R) 03 system (copyright 2003, Gaussian, Inc.),
 the Gaussian(R) 98 system (copyright 1998, Gaussian, Inc.),
 the Gaussian(R) 94 system (copyright 1995, Gaussian, Inc.),
 the Gaussian 92(TM) system (copyright 1992, Gaussian, Inc.),
 the Gaussian 90(TM) system (copyright 1990, Gaussian, Inc.),
 the Gaussian 88(TM) system (copyright 1988, Gaussian, Inc.),
 the Gaussian 86(TM) system (copyright 1986, Carnegie Mellon
 University), and the Gaussian 82(TM) system (copyright 1983,
 Carnegie Mellon University). Gaussian is a federally registered
 trademark of Gaussian, Inc.
  
 This software contains proprietary and confidential information,
 including trade secrets, belonging to Gaussian, Inc.
  
 This software is provided under written license and may be
 used, copied, transmitted, or stored only in accord with that
 written license.
  
 The following legend is applicable only to US Government
 contracts under FAR:
  
                    RESTRICTED RIGHTS LEGEND
  
 Use, reproduction and disclosure by the US Government is
 subject to restrictions as set forth in subparagraphs (a)
 and (c) of the Commercial Computer Software - Restricted
 Rights clause in FAR 52.227-19.
  
 Gaussian, Inc.
 340 Quinnipiac St., Bldg. 40, Wallingford CT 06492
  
  
 ---------------------------------------------------------------
 Warning -- This program may not be used in any manner that
 competes with the business of Gaussian, Inc. or will provide
 assistance to any competitor of Gaussian, Inc.  The licensee
 of this program is prohibited from giving any competitor of
 Gaussian, Inc. access to this program.  By using this program,
 the user acknowledges that Gaussian, Inc. is engaged in the
 business of creating and licensing software in the field of
 computational chemistry and represents and warrants to the
 licensee that it is not a competitor of Gaussian, Inc. and that
 it will not use this program in any manner prohibited above.
 ---------------------------------------------------------------
  

 Cite this work as:
 Gaussian 16, Revision A.03,
 M. J. Frisch, G. W. Trucks, H. B. Schlegel, G. E. Scuseria, 
 M. A. Robb, J. R. Cheeseman, G. Scalmani, V. Barone, 
 G. A. Petersson, H. Nakatsuji, X. Li, M. Caricato, A. V. Marenich, 
 J. Bloino, B. G. Janesko, R. Gomperts, B. Mennucci, H. P. Hratchian, 
 J. V. Ortiz, A. F. Izmaylov, J. L. Sonnenberg, D. Williams-Young, 
 F. Ding, F. Lipparini, F. Egidi, J. Goings, B. Peng, A. Petrone, 
 T. Henderson, D. Ranasinghe, V. G. Zakrzewski, J. Gao, N. Rega, 
 G. Zheng, W. Liang, M. Hada, M. Ehara, K. Toyota, R. Fukuda, 
 J. Hasegawa, M. Ishida, T. Nakajima, Y. Honda, O. Kitao, H. Nakai, 
 T. Vreven, K. Throssell, J. A. Montgomery, Jr., J. E. Peralta, 
 F. Ogliaro, M. J. Bearpark, J. J. Heyd, E. N. Brothers, K. N. Kudin, 
 V. N. Staroverov, T. A. Keith, R. Kobayashi, J. Normand, 
 K. Raghavachari, A. P. Rendell, J. C. Burant, S. S. Iyengar, 
 J. Tomasi, M. Cossi, J. M. Millam, M. Klene, C. Adamo, R. Cammi, 
 J. W. Ochterski, R. L. Martin, K. Morokuma, O. Farkas, 
 J. B. Foresman, and D. J. Fox, Gaussian, Inc., Wallingford CT, 2016.
 
 ******************************************
 Gaussian 16:  ES64L-G16RevA.03 25-Dec-2016
                28-Dec-2023 
 ******************************************
 %nprocs=32
 Will use up to   32 processors via shared memory.
 %chk=molecule_2_1.chk
 %mem=10GB
 --------------------
 # opt b3lyp/6-31g(d)
 --------------------
 1/18=20,19=15,26=3,38=1/1,3;
 2/9=110,12=2,17=6,18=5,40=1/2;
 3/5=1,6=6,7=1,11=2,25=1,30=1,71=1,74=-5/1,2,3;
 4//1;
 5/5=2,38=5/2;
 6/7=2,8=2,9=2,10=2,28=1/1;
 7//1,2,3,16;
 1/18=20,19=15,26=3/3(2);
 2/9=110/2;
 99//99;
 2/9=110/2;
 3/5=1,6=6,7=1,11=2,25=1,30=1,71=1,74=-5/1,2,3;
 4/5=5,16=3,69=1/1;
 5/5=2,38=5/2;
 7//1,2,3,16;
 1/18=20,19=15,26=3/3(-5);
 2/9=110/2;
 6/7=2,8=2,9=2,10=2,19=2,28=1/1;
 99/9=1/99;
 ------------
 molecule_2_1
 ------------
 Symbolic Z-matrix:
 Charge =  0 Multiplicity = 1
 O                     1.9049   -2.2629   -0.6606 
 C                     1.4905   -1.1068   -0.3688 
 C                     0.0048   -0.81     -0.517 
 O                    -0.4382   -1.5097   -1.6533 
 C                    -0.2713    0.6955   -0.6783 
 C                    -1.5742    1.1821   -0.9998 
 C                    -1.78      2.5833   -1.1582 
 C                    -3.1282    3.1715   -1.4963 
 C                    -0.7088    3.4652   -0.9808 
 C                     0.5433    2.9953   -0.6181 
 C                     0.7705    1.6274   -0.4504 
 C                     2.1053    1.2       0.0107 
 C                     2.4475   -0.0905    0.13 
 C                     3.8523   -0.5004    0.6008 
 C                     4.59144  -1.35085  -0.46007 
 O                     4.61705   0.66328   0.82538 
 C                     3.72026  -1.29597   1.91389 
 C                    -2.7482    0.2201   -1.0698 
 C                    -3.0701   -0.359     0.3167 
 C                    -2.2411   -1.6037    0.7445 
 C                    -2.6584   -1.946     2.1969 
 C                    -2.6069   -2.8396   -0.118 
 C                    -0.697    -1.346     0.7662 
 H                    -0.004    -1.1038   -2.4504 
 H                    -3.4791    2.7764   -2.4728 
 H                    -3.0901    4.2786   -1.5802 
 H                    -3.8601    2.9227   -0.6991 
 H                    -0.8462    4.5334   -1.0976 
 H                     1.3413    3.7105   -0.4563 
 H                     2.8205    1.9744    0.2497 
 H                     4.54507  -0.85316  -1.45246 
 H                     4.16664  -2.37278  -0.54342 
 H                     5.66116  -1.47057  -0.1845 
 H                     5.48543   0.39785   1.2287 
 H                     4.71871  -1.62121   2.27731 
 H                     3.25102  -0.66573   2.69953 
 H                     3.09232  -2.20061   1.76377 
 H                    -2.5827   -0.5593   -1.8322 
 H                    -3.6664    0.7177   -1.4342 
 H                    -2.9595    0.4483    1.0759 
 H                    -4.1481   -0.6377    0.3248 
 H                    -3.7496   -2.1499    2.262 
 H                    -2.4291   -1.1046    2.8865 
 H                    -2.1185   -2.8465    2.563 
 H                    -1.9973   -3.7191    0.1818 
 H                    -2.4616   -2.6804   -1.2005 
 H                    -3.6776   -3.1053    0.0188 
 H                    -0.4627   -0.6359    1.5923 
 H                    -0.2148   -2.3063    1.0619 
 

 GradGradGradGradGradGradGradGradGradGradGradGradGradGradGradGradGradGrad
 Berny optimization.
 Initialization pass.
                           ----------------------------
                           !    Initial Parameters    !
                           ! (Angstroms and Degrees)  !
 --------------------------                            --------------------------
 ! Name  Definition              Value          Derivative Info.                !
 --------------------------------------------------------------------------------
 ! R1    R(1,2)                  1.2623         estimate D2E/DX2                !
 ! R2    R(2,3)                  1.5223         estimate D2E/DX2                !
 ! R3    R(2,13)                 1.4824         estimate D2E/DX2                !
 ! R4    R(3,4)                  1.4061         estimate D2E/DX2                !
 ! R5    R(3,5)                  1.5391         estimate D2E/DX2                !
 ! R6    R(3,23)                 1.5577         estimate D2E/DX2                !
 ! R7    R(4,24)                 0.9943         estimate D2E/DX2                !
 ! R8    R(5,6)                  1.4275         estimate D2E/DX2                !
 ! R9    R(5,11)                 1.4162         estimate D2E/DX2                !
 ! R10   R(6,7)                  1.4251         estimate D2E/DX2                !
 ! R11   R(6,18)                 1.5194         estimate D2E/DX2                !
 ! R12   R(7,8)                  1.5093         estimate D2E/DX2                !
 ! R13   R(7,9)                  1.3988         estimate D2E/DX2                !
 ! R14   R(8,25)                 1.1103         estimate D2E/DX2                !
 ! R15   R(8,26)                 1.1109         estimate D2E/DX2                !
 ! R16   R(8,27)                 1.1105         estimate D2E/DX2                !
 ! R17   R(9,10)                 1.3857         estimate D2E/DX2                !
 ! R18   R(9,28)                 1.0833         estimate D2E/DX2                !
 ! R19   R(10,11)                1.3967         estimate D2E/DX2                !
 ! R20   R(10,29)                1.0837         estimate D2E/DX2                !
 ! R21   R(11,12)                1.4755         estimate D2E/DX2                !
 ! R22   R(12,13)                1.3404         estimate D2E/DX2                !
 ! R23   R(12,30)                1.0809         estimate D2E/DX2                !
 ! R24   R(13,14)                1.5372         estimate D2E/DX2                !
 ! R25   R(14,15)                1.5476         estimate D2E/DX2                !
 ! R26   R(14,16)                1.4105         estimate D2E/DX2                !
 ! R27   R(14,17)                1.541          estimate D2E/DX2                !
 ! R28   R(15,31)                1.1112         estimate D2E/DX2                !
 ! R29   R(15,32)                1.1098         estimate D2E/DX2                !
 ! R30   R(15,33)                1.1111         estimate D2E/DX2                !
 ! R31   R(16,34)                0.9936         estimate D2E/DX2                !
 ! R32   R(17,35)                1.1112         estimate D2E/DX2                !
 ! R33   R(17,36)                1.1111         estimate D2E/DX2                !
 ! R34   R(17,37)                1.1114         estimate D2E/DX2                !
 ! R35   R(18,19)                1.5367         estimate D2E/DX2                !
 ! R36   R(18,38)                1.1028         estimate D2E/DX2                !
 ! R37   R(18,39)                1.1061         estimate D2E/DX2                !
 ! R38   R(19,20)                1.5555         estimate D2E/DX2                !
 ! R39   R(19,40)                1.1137         estimate D2E/DX2                !
 ! R40   R(19,41)                1.1135         estimate D2E/DX2                !
 ! R41   R(20,21)                1.5494         estimate D2E/DX2                !
 ! R42   R(20,22)                1.5509         estimate D2E/DX2                !
 ! R43   R(20,23)                1.5656         estimate D2E/DX2                !
 ! R44   R(21,42)                1.112          estimate D2E/DX2                !
 ! R45   R(21,43)                1.1118         estimate D2E/DX2                !
 ! R46   R(21,44)                1.1119         estimate D2E/DX2                !
 ! R47   R(22,45)                1.1113         estimate D2E/DX2                !
 ! R48   R(22,46)                1.1037         estimate D2E/DX2                !
 ! R49   R(22,47)                1.1116         estimate D2E/DX2                !
 ! R50   R(23,48)                1.1143         estimate D2E/DX2                !
 ! R51   R(23,49)                1.1145         estimate D2E/DX2                !
 ! A1    A(1,2,3)              118.4541         estimate D2E/DX2                !
 ! A2    A(1,2,13)             119.5866         estimate D2E/DX2                !
 ! A3    A(3,2,13)             121.948          estimate D2E/DX2                !
 ! A4    A(2,3,4)              106.8068         estimate D2E/DX2                !
 ! A5    A(2,3,5)              112.0861         estimate D2E/DX2                !
 ! A6    A(2,3,23)             107.003          estimate D2E/DX2                !
 ! A7    A(4,3,5)              110.2158         estimate D2E/DX2                !
 ! A8    A(4,3,23)             110.6434         estimate D2E/DX2                !
 ! A9    A(5,3,23)             110.0049         estimate D2E/DX2                !
 ! A10   A(3,4,24)             107.8863         estimate D2E/DX2                !
 ! A11   A(3,5,6)              121.3848         estimate D2E/DX2                !
 ! A12   A(3,5,11)             119.6583         estimate D2E/DX2                !
 ! A13   A(6,5,11)             118.9047         estimate D2E/DX2                !
 ! A14   A(5,6,7)              119.4733         estimate D2E/DX2                !
 ! A15   A(5,6,18)             119.9858         estimate D2E/DX2                !
 ! A16   A(7,6,18)             120.3866         estimate D2E/DX2                !
 ! A17   A(6,7,8)              122.4862         estimate D2E/DX2                !
 ! A18   A(6,7,9)              119.684          estimate D2E/DX2                !
 ! A19   A(8,7,9)              117.8245         estimate D2E/DX2                !
 ! A20   A(7,8,25)             109.9161         estimate D2E/DX2                !
 ! A21   A(7,8,26)             112.0034         estimate D2E/DX2                !
 ! A22   A(7,8,27)             109.9145         estimate D2E/DX2                !
 ! A23   A(25,8,26)            107.3999         estimate D2E/DX2                !
 ! A24   A(25,8,27)            110.0815         estimate D2E/DX2                !
 ! A25   A(26,8,27)            107.4638         estimate D2E/DX2                !
 ! A26   A(7,9,10)             120.7549         estimate D2E/DX2                !
 ! A27   A(7,9,28)             120.7214         estimate D2E/DX2                !
 ! A28   A(10,9,28)            118.5031         estimate D2E/DX2                !
 ! A29   A(9,10,11)            120.6984         estimate D2E/DX2                !
 ! A30   A(9,10,29)            118.7273         estimate D2E/DX2                !
 ! A31   A(11,10,29)           120.5711         estimate D2E/DX2                !
 ! A32   A(5,11,10)            120.3609         estimate D2E/DX2                !
 ! A33   A(5,11,12)            121.6794         estimate D2E/DX2                !
 ! A34   A(10,11,12)           117.9285         estimate D2E/DX2                !
 ! A35   A(11,12,13)           122.5242         estimate D2E/DX2                !
 ! A36   A(11,12,30)           117.3977         estimate D2E/DX2                !
 ! A37   A(13,12,30)           120.077          estimate D2E/DX2                !
 ! A38   A(2,13,12)            117.7288         estimate D2E/DX2                !
 ! A39   A(2,13,14)            120.6769         estimate D2E/DX2                !
 ! A40   A(12,13,14)           121.1493         estimate D2E/DX2                !
 ! A41   A(13,14,15)           111.9035         estimate D2E/DX2                !
 ! A42   A(13,14,16)           108.9203         estimate D2E/DX2                !
 ! A43   A(13,14,17)           108.683          estimate D2E/DX2                !
 ! A44   A(15,14,16)           107.6722         estimate D2E/DX2                !
 ! A45   A(15,14,17)           109.9585         estimate D2E/DX2                !
 ! A46   A(16,14,17)           109.6776         estimate D2E/DX2                !
 ! A47   A(14,15,31)           110.2525         estimate D2E/DX2                !
 ! A48   A(14,15,32)           112.0044         estimate D2E/DX2                !
 ! A49   A(14,15,33)           110.427          estimate D2E/DX2                !
 ! A50   A(31,15,32)           109.2309         estimate D2E/DX2                !
 ! A51   A(31,15,33)           108.0555         estimate D2E/DX2                !
 ! A52   A(32,15,33)           106.733          estimate D2E/DX2                !
 ! A53   A(14,16,34)           108.5483         estimate D2E/DX2                !
 ! A54   A(14,17,35)           110.6592         estimate D2E/DX2                !
 ! A55   A(14,17,36)           110.2338         estimate D2E/DX2                !
 ! A56   A(14,17,37)           110.7044         estimate D2E/DX2                !
 ! A57   A(35,17,36)           108.3143         estimate D2E/DX2                !
 ! A58   A(35,17,37)           108.2766         estimate D2E/DX2                !
 ! A59   A(36,17,37)           108.5773         estimate D2E/DX2                !
 ! A60   A(6,18,19)            111.032          estimate D2E/DX2                !
 ! A61   A(6,18,38)            111.3074         estimate D2E/DX2                !
 ! A62   A(6,18,39)            111.8238         estimate D2E/DX2                !
 ! A63   A(19,18,38)           112.8847         estimate D2E/DX2                !
 ! A64   A(19,18,39)           107.031          estimate D2E/DX2                !
 ! A65   A(38,18,39)           102.402          estimate D2E/DX2                !
 ! A66   A(18,19,20)           115.9806         estimate D2E/DX2                !
 ! A67   A(18,19,40)           108.7291         estimate D2E/DX2                !
 ! A68   A(18,19,41)           107.6796         estimate D2E/DX2                !
 ! A69   A(20,19,40)           109.8548         estimate D2E/DX2                !
 ! A70   A(20,19,41)           108.2814         estimate D2E/DX2                !
 ! A71   A(40,19,41)           105.8202         estimate D2E/DX2                !
 ! A72   A(19,20,21)           106.9205         estimate D2E/DX2                !
 ! A73   A(19,20,22)           111.0406         estimate D2E/DX2                !
 ! A74   A(19,20,23)           113.4364         estimate D2E/DX2                !
 ! A75   A(21,20,22)           106.3637         estimate D2E/DX2                !
 ! A76   A(21,20,23)           106.7977         estimate D2E/DX2                !
 ! A77   A(22,20,23)           111.8088         estimate D2E/DX2                !
 ! A78   A(20,21,42)           111.08           estimate D2E/DX2                !
 ! A79   A(20,21,43)           111.0189         estimate D2E/DX2                !
 ! A80   A(20,21,44)           110.9015         estimate D2E/DX2                !
 ! A81   A(42,21,43)           107.7488         estimate D2E/DX2                !
 ! A82   A(42,21,44)           107.9806         estimate D2E/DX2                !
 ! A83   A(43,21,44)           107.9706         estimate D2E/DX2                !
 ! A84   A(20,22,45)           110.5649         estimate D2E/DX2                !
 ! A85   A(20,22,46)           113.5433         estimate D2E/DX2                !
 ! A86   A(20,22,47)           110.4398         estimate D2E/DX2                !
 ! A87   A(45,22,46)           107.8494         estimate D2E/DX2                !
 ! A88   A(45,22,47)           107.8175         estimate D2E/DX2                !
 ! A89   A(46,22,47)           106.3775         estimate D2E/DX2                !
 ! A90   A(3,23,20)            119.3122         estimate D2E/DX2                !
 ! A91   A(3,23,48)            107.2605         estimate D2E/DX2                !
 ! A92   A(3,23,49)            108.6703         estimate D2E/DX2                !
 ! A93   A(20,23,48)           108.8177         estimate D2E/DX2                !
 ! A94   A(20,23,49)           106.7721         estimate D2E/DX2                !
 ! A95   A(48,23,49)           105.1546         estimate D2E/DX2                !
 ! D1    D(1,2,3,4)            -36.4607         estimate D2E/DX2                !
 ! D2    D(1,2,3,5)           -157.2661         estimate D2E/DX2                !
 ! D3    D(1,2,3,23)            82.0601         estimate D2E/DX2                !
 ! D4    D(13,2,3,4)           144.7672         estimate D2E/DX2                !
 ! D5    D(13,2,3,5)            23.9618         estimate D2E/DX2                !
 ! D6    D(13,2,3,23)          -96.7119         estimate D2E/DX2                !
 ! D7    D(1,2,13,12)          158.3119         estimate D2E/DX2                !
 ! D8    D(1,2,13,14)          -14.1204         estimate D2E/DX2                !
 ! D9    D(3,2,13,12)          -22.9296         estimate D2E/DX2                !
 ! D10   D(3,2,13,14)          164.6382         estimate D2E/DX2                !
 ! D11   D(2,3,4,24)           -66.9046         estimate D2E/DX2                !
 ! D12   D(5,3,4,24)            55.0864         estimate D2E/DX2                !
 ! D13   D(23,3,4,24)          176.9773         estimate D2E/DX2                !
 ! D14   D(2,3,5,6)            172.0101         estimate D2E/DX2                !
 ! D15   D(2,3,5,11)           -10.6482         estimate D2E/DX2                !
 ! D16   D(4,3,5,6)             53.1973         estimate D2E/DX2                !
 ! D17   D(4,3,5,11)          -129.461          estimate D2E/DX2                !
 ! D18   D(23,3,5,6)           -69.0709         estimate D2E/DX2                !
 ! D19   D(23,3,5,11)          108.2708         estimate D2E/DX2                !
 ! D20   D(2,3,23,20)         -161.0495         estimate D2E/DX2                !
 ! D21   D(2,3,23,48)           74.7691         estimate D2E/DX2                !
 ! D22   D(2,3,23,49)          -38.4313         estimate D2E/DX2                !
 ! D23   D(4,3,23,20)          -45.0534         estimate D2E/DX2                !
 ! D24   D(4,3,23,48)         -169.2348         estimate D2E/DX2                !
 ! D25   D(4,3,23,49)           77.5648         estimate D2E/DX2                !
 ! D26   D(5,3,23,20)           76.9613         estimate D2E/DX2                !
 ! D27   D(5,3,23,48)          -47.2201         estimate D2E/DX2                !
 ! D28   D(5,3,23,49)         -160.4206         estimate D2E/DX2                !
 ! D29   D(3,5,6,7)           -179.1167         estimate D2E/DX2                !
 ! D30   D(3,5,6,18)             5.3796         estimate D2E/DX2                !
 ! D31   D(11,5,6,7)             3.522          estimate D2E/DX2                !
 ! D32   D(11,5,6,18)         -171.9817         estimate D2E/DX2                !
 ! D33   D(3,5,11,10)          178.738          estimate D2E/DX2                !
 ! D34   D(3,5,11,12)           -3.3336         estimate D2E/DX2                !
 ! D35   D(6,5,11,10)           -3.8542         estimate D2E/DX2                !
 ! D36   D(6,5,11,12)          174.0741         estimate D2E/DX2                !
 ! D37   D(5,6,7,8)           -179.936          estimate D2E/DX2                !
 ! D38   D(5,6,7,9)             -0.7923         estimate D2E/DX2                !
 ! D39   D(18,6,7,8)            -4.4506         estimate D2E/DX2                !
 ! D40   D(18,6,7,9)           174.6931         estimate D2E/DX2                !
 ! D41   D(5,6,18,19)           66.6947         estimate D2E/DX2                !
 ! D42   D(5,6,18,38)          -59.9729         estimate D2E/DX2                !
 ! D43   D(5,6,18,39)         -173.8335         estimate D2E/DX2                !
 ! D44   D(7,6,18,19)         -108.7675         estimate D2E/DX2                !
 ! D45   D(7,6,18,38)          124.5649         estimate D2E/DX2                !
 ! D46   D(7,6,18,39)           10.7043         estimate D2E/DX2                !
 ! D47   D(6,7,8,25)           -60.5895         estimate D2E/DX2                !
 ! D48   D(6,7,8,26)          -179.8944         estimate D2E/DX2                !
 ! D49   D(6,7,8,27)            60.7216         estimate D2E/DX2                !
 ! D50   D(9,7,8,25)           120.2517         estimate D2E/DX2                !
 ! D51   D(9,7,8,26)             0.9468         estimate D2E/DX2                !
 ! D52   D(9,7,8,27)          -118.4372         estimate D2E/DX2                !
 ! D53   D(6,7,9,10)            -1.7091         estimate D2E/DX2                !
 ! D54   D(6,7,9,28)           179.9676         estimate D2E/DX2                !
 ! D55   D(8,7,9,10)           177.4742         estimate D2E/DX2                !
 ! D56   D(8,7,9,28)            -0.8492         estimate D2E/DX2                !
 ! D57   D(7,9,10,11)            1.4219         estimate D2E/DX2                !
 ! D58   D(7,9,10,29)         -177.924          estimate D2E/DX2                !
 ! D59   D(28,9,10,11)         179.7818         estimate D2E/DX2                !
 ! D60   D(28,9,10,29)           0.4358         estimate D2E/DX2                !
 ! D61   D(9,10,11,5)            1.4119         estimate D2E/DX2                !
 ! D62   D(9,10,11,12)        -176.5928         estimate D2E/DX2                !
 ! D63   D(29,10,11,5)        -179.2543         estimate D2E/DX2                !
 ! D64   D(29,10,11,12)          2.741          estimate D2E/DX2                !
 ! D65   D(5,11,12,13)           5.8891         estimate D2E/DX2                !
 ! D66   D(5,11,12,30)        -174.5137         estimate D2E/DX2                !
 ! D67   D(10,11,12,13)       -176.134          estimate D2E/DX2                !
 ! D68   D(10,11,12,30)          3.4632         estimate D2E/DX2                !
 ! D69   D(11,12,13,2)           7.0108         estimate D2E/DX2                !
 ! D70   D(11,12,13,14)        179.4054         estimate D2E/DX2                !
 ! D71   D(30,12,13,2)        -172.576          estimate D2E/DX2                !
 ! D72   D(30,12,13,14)         -0.1814         estimate D2E/DX2                !
 ! D73   D(2,13,14,15)          52.1713         estimate D2E/DX2                !
 ! D74   D(2,13,14,16)         171.0984         estimate D2E/DX2                !
 ! D75   D(2,13,14,17)         -69.4512         estimate D2E/DX2                !
 ! D76   D(12,13,14,15)       -119.9999         estimate D2E/DX2                !
 ! D77   D(12,13,14,16)         -1.0728         estimate D2E/DX2                !
 ! D78   D(12,13,14,17)        118.3775         estimate D2E/DX2                !
 ! D79   D(13,14,15,31)         49.9392         estimate D2E/DX2                !
 ! D80   D(13,14,15,32)        -71.9158         estimate D2E/DX2                !
 ! D81   D(13,14,15,33)        169.2763         estimate D2E/DX2                !
 ! D82   D(16,14,15,31)        -69.7234         estimate D2E/DX2                !
 ! D83   D(16,14,15,32)        168.4216         estimate D2E/DX2                !
 ! D84   D(16,14,15,33)         49.6137         estimate D2E/DX2                !
 ! D85   D(17,14,15,31)        170.8249         estimate D2E/DX2                !
 ! D86   D(17,14,15,32)         48.97           estimate D2E/DX2                !
 ! D87   D(17,14,15,33)        -69.838          estimate D2E/DX2                !
 ! D88   D(13,14,16,34)        173.5144         estimate D2E/DX2                !
 ! D89   D(15,14,16,34)        -64.9457         estimate D2E/DX2                !
 ! D90   D(17,14,16,34)         54.6846         estimate D2E/DX2                !
 ! D91   D(13,14,17,35)        179.2411         estimate D2E/DX2                !
 ! D92   D(13,14,17,36)        -60.9643         estimate D2E/DX2                !
 ! D93   D(13,14,17,37)         59.1876         estimate D2E/DX2                !
 ! D94   D(15,14,17,35)         56.4377         estimate D2E/DX2                !
 ! D95   D(15,14,17,36)        176.2323         estimate D2E/DX2                !
 ! D96   D(15,14,17,37)        -63.6158         estimate D2E/DX2                !
 ! D97   D(16,14,17,35)        -61.7828         estimate D2E/DX2                !
 ! D98   D(16,14,17,36)         58.0119         estimate D2E/DX2                !
 ! D99   D(16,14,17,37)        178.1638         estimate D2E/DX2                !
 ! D100  D(6,18,19,20)         -84.8687         estimate D2E/DX2                !
 ! D101  D(6,18,19,40)          39.4757         estimate D2E/DX2                !
 ! D102  D(6,18,19,41)         153.6933         estimate D2E/DX2                !
 ! D103  D(38,18,19,20)         40.925          estimate D2E/DX2                !
 ! D104  D(38,18,19,40)        165.2693         estimate D2E/DX2                !
 ! D105  D(38,18,19,41)        -80.5131         estimate D2E/DX2                !
 ! D106  D(39,18,19,20)        152.8324         estimate D2E/DX2                !
 ! D107  D(39,18,19,40)        -82.8232         estimate D2E/DX2                !
 ! D108  D(39,18,19,41)         31.3944         estimate D2E/DX2                !
 ! D109  D(18,19,20,21)        176.0065         estimate D2E/DX2                !
 ! D110  D(18,19,20,22)        -68.3644         estimate D2E/DX2                !
 ! D111  D(18,19,20,23)         58.5481         estimate D2E/DX2                !
 ! D112  D(40,19,20,21)         52.2452         estimate D2E/DX2                !
 ! D113  D(40,19,20,22)        167.8743         estimate D2E/DX2                !
 ! D114  D(40,19,20,23)        -65.2132         estimate D2E/DX2                !
 ! D115  D(41,19,20,21)        -62.8769         estimate D2E/DX2                !
 ! D116  D(41,19,20,22)         52.7521         estimate D2E/DX2                !
 ! D117  D(41,19,20,23)        179.6646         estimate D2E/DX2                !
 ! D118  D(19,20,21,42)         58.6195         estimate D2E/DX2                !
 ! D119  D(19,20,21,43)        -61.2554         estimate D2E/DX2                !
 ! D120  D(19,20,21,44)        178.7086         estimate D2E/DX2                !
 ! D121  D(22,20,21,42)        -60.0948         estimate D2E/DX2                !
 ! D122  D(22,20,21,43)       -179.9698         estimate D2E/DX2                !
 ! D123  D(22,20,21,44)         59.9943         estimate D2E/DX2                !
 ! D124  D(23,20,21,42)       -179.6388         estimate D2E/DX2                !
 ! D125  D(23,20,21,43)         60.4863         estimate D2E/DX2                !
 ! D126  D(23,20,21,44)        -59.5497         estimate D2E/DX2                !
 ! D127  D(19,20,22,45)        178.9762         estimate D2E/DX2                !
 ! D128  D(19,20,22,46)         57.6056         estimate D2E/DX2                !
 ! D129  D(19,20,22,47)        -61.7756         estimate D2E/DX2                !
 ! D130  D(21,20,22,45)        -65.0505         estimate D2E/DX2                !
 ! D131  D(21,20,22,46)        173.5789         estimate D2E/DX2                !
 ! D132  D(21,20,22,47)         54.1977         estimate D2E/DX2                !
 ! D133  D(23,20,22,45)         51.1752         estimate D2E/DX2                !
 ! D134  D(23,20,22,46)        -70.1955         estimate D2E/DX2                !
 ! D135  D(23,20,22,47)        170.4234         estimate D2E/DX2                !
 ! D136  D(19,20,23,3)         -55.2068         estimate D2E/DX2                !
 ! D137  D(19,20,23,48)         68.2171         estimate D2E/DX2                !
 ! D138  D(19,20,23,49)       -178.7561         estimate D2E/DX2                !
 ! D139  D(21,20,23,3)        -172.7367         estimate D2E/DX2                !
 ! D140  D(21,20,23,48)        -49.3128         estimate D2E/DX2                !
 ! D141  D(21,20,23,49)         63.714          estimate D2E/DX2                !
 ! D142  D(22,20,23,3)          71.3014         estimate D2E/DX2                !
 ! D143  D(22,20,23,48)       -165.2747         estimate D2E/DX2                !
 ! D144  D(22,20,23,49)        -52.2478         estimate D2E/DX2                !
 --------------------------------------------------------------------------------
 Trust Radius=3.00D-01 FncErr=1.00D-07 GrdErr=1.00D-06 EigMax=2.50D+02 EigMin=1.00D-04
 Number of steps in this run=    294 maximum allowed number of steps=    294.
 GradGradGradGradGradGradGradGradGradGradGradGradGradGradGradGradGradGrad

                          Input orientation:                          
 ---------------------------------------------------------------------
 Center     Atomic      Atomic             Coordinates (Angstroms)
 Number     Number       Type             X           Y           Z
 ---------------------------------------------------------------------
      1          8           0        1.904900   -2.262900   -0.660600
      2          6           0        1.490500   -1.106800   -0.368800
      3          6           0        0.004800   -0.810000   -0.517000
      4          8           0       -0.438200   -1.509700   -1.653300
      5          6           0       -0.271300    0.695500   -0.678300
      6          6           0       -1.574200    1.182100   -0.999800
      7          6           0       -1.780000    2.583300   -1.158200
      8          6           0       -3.128200    3.171500   -1.496300
      9          6           0       -0.708800    3.465200   -0.980800
     10          6           0        0.543300    2.995300   -0.618100
     11          6           0        0.770500    1.627400   -0.450400
     12          6           0        2.105300    1.200000    0.010700
     13          6           0        2.447500   -0.090500    0.130000
     14          6           0        3.852300   -0.500400    0.600800
     15          6           0        4.591440   -1.350850   -0.460070
     16          8           0        4.617050    0.663280    0.825380
     17          6           0        3.720260   -1.295970    1.913890
     18          6           0       -2.748200    0.220100   -1.069800
     19          6           0       -3.070100   -0.359000    0.316700
     20          6           0       -2.241100   -1.603700    0.744500
     21          6           0       -2.658400   -1.946000    2.196900
     22          6           0       -2.606900   -2.839600   -0.118000
     23          6           0       -0.697000   -1.346000    0.766200
     24          1           0       -0.004000   -1.103800   -2.450400
     25          1           0       -3.479100    2.776400   -2.472800
     26          1           0       -3.090100    4.278600   -1.580200
     27          1           0       -3.860100    2.922700   -0.699100
     28          1           0       -0.846200    4.533400   -1.097600
     29          1           0        1.341300    3.710500   -0.456300
     30          1           0        2.820500    1.974400    0.249700
     31          1           0        4.545070   -0.853160   -1.452460
     32          1           0        4.166640   -2.372780   -0.543420
     33          1           0        5.661160   -1.470570   -0.184500
     34          1           0        5.485430    0.397850    1.228700
     35          1           0        4.718710   -1.621210    2.277310
     36          1           0        3.251020   -0.665730    2.699530
     37          1           0        3.092320   -2.200610    1.763770
     38          1           0       -2.582700   -0.559300   -1.832200
     39          1           0       -3.666400    0.717700   -1.434200
     40          1           0       -2.959500    0.448300    1.075900
     41          1           0       -4.148100   -0.637700    0.324800
     42          1           0       -3.749600   -2.149900    2.262000
     43          1           0       -2.429100   -1.104600    2.886500
     44          1           0       -2.118500   -2.846500    2.563000
     45          1           0       -1.997300   -3.719100    0.181800
     46          1           0       -2.461600   -2.680400   -1.200500
     47          1           0       -3.677600   -3.105300    0.018800
     48          1           0       -0.462700   -0.635900    1.592300
     49          1           0       -0.214800   -2.306300    1.061900
 ---------------------------------------------------------------------
                    Distance matrix (angstroms):
                    1          2          3          4          5
     1  O    0.000000
     2  C    1.262316   0.000000
     3  C    2.396230   1.522287   0.000000
     4  O    2.653843   2.352053   1.406061   0.000000
     5  C    3.672641   2.539294   1.539084   2.416896   0.000000
     6  C    4.907873   3.876804   2.587431   2.993885   1.427477
     7  C    6.108334   4.993612   3.887304   4.335689   2.463791
     8  C    7.454072   6.395897   5.160141   5.401332   3.868020
     9  C    6.304370   5.110249   4.359091   5.027436   2.820310
    10  C    5.431798   4.217412   3.844543   4.725464   2.440549
    11  C    4.057768   2.828588   2.555709   3.570619   1.416236
    12  C    3.533055   2.417297   2.954770   4.071948   2.525365
    13  C    2.374613   1.482402   2.627370   3.677166   2.943301
    14  C    2.913744   2.624108   4.018530   4.950560   4.479994
    15  C    2.844212   3.111868   4.618769   5.171683   5.280285
    16  O    4.257514   3.786101   5.024479   6.035002   5.114495
    17  C    3.295221   3.196606   4.466546   5.483002   5.159259
    18  C    5.289997   4.496514   2.990937   2.944279   2.552315
    19  C    5.415771   4.672065   3.217680   3.483089   3.152027
    20  C    4.426982   3.925708   2.695442   3.001455   3.345264
    21  C    5.393463   4.949792   3.968423   4.465835   4.576302
    22  C    4.580757   4.455803   3.331584   2.971370   4.273862
    23  C    3.105857   2.476004   1.557697   2.438802   2.536833
    24  H    2.861957   2.562537   1.955615   0.994310   2.539541
    25  H    7.593818   6.648532   5.368890   5.318769   4.223785
    26  H    8.281722   7.172999   6.050012   6.367286   4.647329
    27  H    7.754170   6.706332   5.376213   5.680323   4.223782
    28  H    7.345013   6.148428   5.441803   6.082296   3.903306
    29  H    6.003407   4.820404   4.714323   5.643573   3.426367
    30  H    4.429637   3.412512   4.033470   5.136097   3.472175
    31  H    3.095950   3.251008   4.635839   5.030344   5.118114
    32  H    2.267437   2.965624   4.445660   4.814695   5.397022
    33  H    3.868326   4.190549   5.704500   6.273842   6.334807
    34  H    4.844506   4.558009   5.877387   6.858138   6.071671
    35  H    4.118326   4.205693   5.539601   6.485048   6.245236
    36  H    3.956446   3.564915   4.572179   5.767994   5.066500
    37  H    2.700262   2.882725   4.082706   4.961683   5.066073
    38  H    4.940997   4.362597   2.913376   2.352476   2.872034
    39  H    6.365675   5.572925   4.080788   3.928179   3.478302
    40  H    5.833389   4.930314   3.592732   4.199911   3.219432
    41  H    6.344375   5.700434   4.240860   4.293789   4.220570
    42  H    6.366139   5.955486   4.859392   5.167669   5.370311
    43  H    5.719015   5.095120   4.194576   4.973688   4.539192
    44  H    5.188442   4.964563   4.259359   4.731557   5.144311
    45  H    4.249391   4.392268   3.599943   3.268001   4.817421
    46  H    4.419516   4.334401   3.169968   2.381116   4.057931
    47  H    5.686434   5.554592   4.372134   3.979393   5.151205
    48  H    3.650783   2.807606   2.167490   3.361257   2.639107
    49  H    2.731669   2.528587   2.186336   2.838449   3.470201
                    6          7          8          9         10
     6  C    0.000000
     7  C    1.425063   0.000000
     8  C    2.572769   1.509283   0.000000
     9  C    2.441685   1.398817   2.491083   0.000000
    10  C    2.813751   2.420573   3.779179   1.385681   0.000000
    11  C    2.449031   2.814210   4.321807   2.418090   1.396744
    12  C    3.815777   4.286654   5.792010   3.746113   2.461369
    13  C    4.366925   5.165309   6.661376   4.882531   3.702404
    14  C    5.902510   6.657784   8.161376   6.247486   4.965392
    15  C    6.687470   7.520650   9.006568   7.180393   5.941501
    16  O    6.475495   6.967303   8.465829   6.283130   4.910946
    17  C    6.531595   7.398603   8.859407   7.117903   5.909234
    18  C    1.519414   2.555375   3.006171   3.833764   4.328942
    19  C    2.519103   3.535084   3.969228   4.678007   5.018151
    20  C    3.353807   4.622104   5.348894   5.569412   5.546203
    21  C    4.602107   5.704633   6.328447   6.571134   6.526220
    22  C    4.244775   5.583334   6.189086   6.640611   6.649806
    23  C    3.206170   4.507283   5.606911   5.118573   4.722448
    24  H    3.129714   4.291697   5.380439   4.851003   4.523216
    25  H    2.887934   2.156943   1.110309   3.221036   4.434809
    26  H    3.496159   2.183687   1.110928   2.586791   3.971661
    27  H    2.888849   2.157031   1.110453   3.210039   4.404743
    28  H    3.430854   2.162994   2.687240   1.083315   2.127530
    29  H    3.897222   3.392014   4.620449   2.130301   1.083741
    30  H    4.637066   4.849489   6.314158   4.024000   2.642149
    31  H    6.464723   7.204329   8.664807   6.817173   5.614353
    32  H    6.767769   7.765514   9.212042   7.618611   6.476917
    33  H    7.749310   8.529526  10.026090   8.097673   6.806210
    34  H    7.444437   7.953613   9.450576   7.256653   5.880652
    35  H    7.628808   8.468404   9.939024   8.120635   6.865101
    36  H    6.354704   7.123864   8.545395   6.803645   5.633965
    37  H    6.391905   7.427194   8.842086   7.354086   6.258457
    38  H    2.177713   3.312784   3.785402   4.520286   4.886829
    39  H    2.186703   2.667423   2.512897   4.062232   4.855415
    40  H    2.601163   3.307665   3.749732   4.289213   4.650425
    41  H    3.419239   4.264039   4.343571   5.510641   6.008077
    42  H    5.145282   6.162814   6.544330   7.161813   7.293631
    43  H    4.589464   5.511945   6.163011   6.228845   6.158455
    44  H    5.405499   6.591255   7.328965   7.374505   7.164580
    45  H    5.059343   6.446942   7.181596   7.390943   7.223410
    46  H    3.968207   5.307816   5.897168   6.394449   6.448425
    47  H    4.882995   6.111169   6.480400   7.279041   7.445734
    48  H    3.355524   4.434386   5.580379   4.847724   4.368469
    49  H    4.274051   5.593468   6.711079   6.142220   5.612849
                   11         12         13         14         15
    11  C    0.000000
    12  C    1.475458   0.000000
    13  C    2.469893   1.340419   0.000000
    14  C    3.889736   2.508304   1.537249   0.000000
    15  C    4.844548   3.592959   2.556001   1.547591   0.000000
    16  O    4.165704   2.694561   2.399726   1.410472   2.389510
    17  C    4.778812   3.529886   2.501068   1.540964   2.529358
    18  C    3.839974   5.067953   5.341469   6.846651   7.530602
    19  C    4.391405   5.413768   5.527283   6.929670   7.764427
    20  C    4.575754   5.224020   4.964912   6.194146   6.942516
    21  C    5.615580   6.113070   5.812501   6.857588   7.744280
    22  C    5.609938   6.208040   5.758994   6.907228   7.358634
    23  C    3.531965   3.860801   3.445129   4.630176   5.428753
    24  H    3.472651   3.976639   3.700688   4.954287   5.014032
    25  H    4.844523   6.311761   7.079426   8.598480   9.285413
    26  H    4.817628   6.245072   7.258019   8.705890   9.589132
    27  H    4.814780   6.249601   7.039361   8.537474   9.473589
    28  H    3.387835   4.588163   5.808262   7.092222   8.037336
    29  H    2.159897   2.665407   4.001878   5.015402   6.015038
    30  H    2.193866   1.080892   2.101730   2.704167   3.833704
    31  H    4.626519   3.508387   2.735988   2.195506   1.111163
    32  H    5.248224   4.161842   2.935599   2.216722   1.109839
    33  H    5.795401   4.451313   3.511569   2.197703   1.111113
    34  H    5.153808   3.681338   3.267208   1.966780   2.590196
    35  H    5.795018   4.463929   3.480289   2.194896   2.753641
    36  H    4.618818   3.467482   2.753002   2.189415   3.499884
    37  H    4.994703   3.951153   2.745462   2.195628   2.813346
    38  H    4.234971   5.335613   5.419678   6.879839   7.346943
    39  H    4.634814   5.969327   6.362365   7.883898   8.568533
    40  H    4.199139   5.229905   5.515495   6.893937   7.912828
    41  H    5.470305   6.525397   6.621126   8.006337   8.803645
    42  H    6.485092   7.111261   6.869542   7.954201   8.810283
    43  H    5.369932   5.843132   5.692795   6.711592   7.781269
    44  H    6.119043   6.381919   5.862029   6.708567   7.509941
    45  H    6.053549   6.407663   5.738089   6.689799   7.030797
    46  H    5.437487   6.114007   5.707633   6.918267   7.215353
    47  H    6.511850   7.209550   6.827755   7.988969   8.466666
    48  H    3.288758   3.530809   3.302279   4.429521   5.501610
    49  H    4.328032   4.333823   3.586927   4.473834   5.131201
                   16         17         18         19         20
    16  O    0.000000
    17  C    2.414073   0.000000
    18  C    7.618072   7.282984   0.000000
    19  C    7.771492   7.038318   1.536671   0.000000
    20  C    7.223570   6.082761   2.622038   1.555484   0.000000
    21  C    7.849942   6.417939   3.920635   2.494638   1.549443
    22  C    8.083662   6.822340   3.207437   2.560643   1.550859
    23  C    5.681535   4.564196   3.167173   2.609180   1.565607
    24  H    5.933583   5.740563   3.345056   4.196730   3.932163
    25  H    8.993938   9.362587   3.006209   4.216554   5.573952
    26  H    8.846328   9.469187   4.104732   5.010585   6.381731
    27  H    8.904554   9.060174   2.945808   3.524983   5.019307
    28  H    6.965830   7.993947   4.714121   5.557117   6.557673
    29  H    4.653901   6.028432   5.411403   6.051348   6.520447
    30  H    2.297397   3.778150   5.985739   6.336278   6.218313
    31  H    2.737394   3.494096   7.381741   7.833577   7.172311
    32  H    3.360676   2.719770   7.403723   7.560788   6.580984
    33  H    2.581344   2.863707   8.623193   8.815991   7.957794
    34  H    0.993581   2.540539   8.550284   8.637225   7.996244
    35  H    2.708751   1.111196   8.387390   8.130358   7.126624
    36  H    2.672965   1.111134   7.140251   6.762287   5.904686
    37  H    3.377461   1.111404   6.928249   6.592493   5.462653
    38  H    7.771347   7.369069   1.102773   2.212566   2.801222
    39  H    8.586280   8.356274   1.106112   2.140212   3.488139
    40  H    7.583738   6.954416   2.168122   1.113710   2.199234
    41  H    8.875302   8.054168   2.154170   1.113474   2.178521
    42  H    8.943081   7.526565   4.209583   2.730061   2.208328
    43  H    7.551281   6.228742   4.184371   2.751485   2.207399
    44  H    7.791374   6.075904   4.795601   3.484116   2.206020
    45  H    7.960470   6.446874   4.200911   3.529783   2.202496
    46  H    8.086512   7.059140   2.917554   2.839202   2.234039
    47  H    9.146255   7.848145   3.620376   2.828421   2.201130
    48  H    5.299047   4.246913   3.611513   2.915881   2.195019
    49  H    5.676365   4.151066   4.164728   3.535539   2.168013
                   21         22         23         24         25
    21  C    0.000000
    22  C    2.481922   0.000000
    23  C    2.500798   2.580769   0.000000
    24  H    5.417798   3.902330   3.299307   0.000000
    25  H    6.691839   6.151851   5.935098   5.208913   0.000000
    26  H    7.293730   7.282876   6.547415   6.265101   1.790157
    27  H    5.790953   5.925562   5.511271   5.843737   1.820048
    28  H    7.491357   7.643351   6.169551   5.858105   3.451143
    29  H    7.418427   7.655491   5.587250   5.381798   5.308020
    30  H    7.012808   7.264053   4.864631   4.974299   6.909426
    31  H    8.148749   7.541711   5.713549   4.663984   8.865783
    32  H    7.366998   6.802922   5.140465   4.758269   9.417744
    33  H    8.666728   8.380900   6.430050   6.112517  10.335252
    34  H    8.529538   8.819325   6.440292   6.776767   9.986060
    35  H    7.384694   7.802983   5.629308   6.702458  10.445411
    36  H    6.067370   6.854153   4.448302   6.108096   9.159464
    37  H    5.772626   6.035766   4.010542   5.343166   9.268372
    38  H    4.261727   2.852864   3.305517   2.707092   3.512947
    39  H    4.614786   3.938186   4.232960   4.214700   2.313443
    40  H    2.660822   3.515681   2.904192   4.855799   4.275898
    41  H    2.726832   2.723919   3.550579   5.009246   4.464326
    42  H    1.111994   2.728708   3.493142   6.109874   6.838123
    43  H    1.111792   3.474026   2.748475   5.862048   6.699758
    44  H    1.111945   2.725132   2.738732   5.713343   7.669910
    45  H    2.764338   1.111311   2.768376   4.212068   7.171761
    46  H    3.481437   1.103750   2.960126   3.176116   5.694798
    47  H    2.669619   1.111625   3.540864   4.857807   6.390764
    48  H    2.627356   3.518382   1.114262   4.095456   6.104711
    49  H    2.718312   2.720058   1.114509   3.718426   6.998828
                   26         27         28         29         30
    26  H    0.000000
    27  H    1.791006   0.000000
    28  H    2.309310   3.440458   0.000000
    29  H    4.606864   5.266322   2.423548   0.000000
    30  H    6.602504   6.813950   4.669945   2.387574   0.000000
    31  H    9.200386   9.245083   7.629335   5.664227   3.723787
    32  H    9.898285   9.617427   8.551667   6.707938   4.619427
    33  H   10.563403  10.498573   8.900963   6.751189   4.486167
    34  H    9.822925   9.870674   7.912268   5.566569   3.247430
    35  H   10.519774  10.153921   8.957537   6.877983   4.543436
    36  H    9.108913   8.659997   7.631275   5.723433   3.627299
    37  H    9.559530   8.980544   8.309408   6.552557   4.449382
    38  H    4.870958   3.878143   5.430531   5.960039   6.320484
    39  H    3.610186   2.332363   4.756721   5.915251   6.818701
    40  H    4.662952   3.175588   5.087060   5.611280   6.034897
    41  H    5.377583   3.715880   6.298098   7.046309   7.442452
    42  H    7.518182   5.874657   8.023911   8.225005   8.014076
    43  H    7.026178   5.578838   7.082773   6.969607   6.632590
    44  H    8.299227   6.852601   8.335566   8.005038   7.279159
    45  H    8.262086   6.954101   8.430045   8.170213   7.458669
    46  H    6.997633   5.796718   7.393174   7.473920   7.188242
    47  H    7.577858   6.073341   8.222707   8.477630   8.251180
    48  H    6.412511   5.427382   5.839888   5.132482   4.404048
    49  H    7.655648   6.613000   7.200250   6.397520   5.310095
                   31         32         33         34         35
    31  H    0.000000
    32  H    1.810748   0.000000
    33  H    1.798492   1.782245   0.000000
    34  H    3.104500   3.543446   2.349257   0.000000
    35  H    3.811986   2.970885   2.640343   2.400843   0.000000
    36  H    4.353012   3.777447   3.843718   2.878738   1.801479
    37  H    3.777597   2.550869   3.305700   3.572852   1.801270
    38  H    7.143925   7.106564   8.456155   8.682164   8.445491
    39  H    8.360393   8.467649   9.661969   9.536736   9.463397
    40  H    8.025271   7.833426   8.921124   8.446463   8.042460
    41  H    8.875600   8.538103   9.857720   9.731100   9.132355
    42  H    9.180430   8.401602   9.747269   9.635586   8.484811
    43  H    8.217594   7.541646   8.661252   8.224685   7.192300
    44  H    8.031220   7.026894   8.364511   8.374122   6.952007
    45  H    7.327143   6.350801   7.990123   8.604448   7.341464
    46  H    7.245393   6.667829   8.274973   8.861824   8.048223
    47  H    8.651534   7.898404   9.482938   9.884181   8.820511
    48  H    5.864770   5.385986   6.430813   6.048231   5.318560
    49  H    5.575839   4.666743   6.064558   6.311329   5.126996
                   36         37         38         39         40
    36  H    0.000000
    37  H    1.804630   0.000000
    38  H    7.387841   6.915978   0.000000
    39  H    8.176326   8.026446   1.721493   0.000000
    40  H    6.515197   6.641868   3.100691   2.621619   0.000000
    41  H    7.770914   7.545661   2.666322   2.272273   1.776603
    42  H    7.169580   6.860224   4.544682   4.678883   2.963399
    43  H    5.700116   5.740021   4.752586   4.849756   2.443582
    44  H    5.797081   5.311176   4.976399   5.574686   3.711395
    45  H    6.573195   5.541902   3.792522   5.008248   4.369493
    46  H    7.204385   6.313725   2.216478   3.612927   3.901111
    47  H    7.819437   7.049482   3.332735   4.089824   3.776401
    48  H    3.875379   3.887915   4.028333   4.610383   2.770590
    49  H    4.169558   3.382430   4.127320   5.223852   3.888624
                   41         42         43         44         45
    41  H    0.000000
    42  H    2.489638   0.000000
    43  H    3.120138   1.796211   0.000000
    44  H    3.742675   1.798983   1.798705   0.000000
    45  H    3.760507   3.140092   3.786484   2.538943   0.000000
    46  H    3.056705   3.732195   4.380385   3.782755   1.790314
    47  H    2.530624   2.439246   3.712850   2.995117   1.796309
    48  H    3.897272   3.680273   2.400284   2.927573   3.721643
    49  H    4.335711   3.736243   3.110687   2.483786   2.438829
                   46         47         48         49
    46  H    0.000000
    47  H    1.773665   0.000000
    48  H    3.996913   4.348496   0.000000
    49  H    3.210376   3.703707   1.770032   0.000000
 Stoichiometry    C20H26O3
 Framework group  C1[X(C20H26O3)]
 Deg. of freedom   141
 Full point group                 C1      NOp   1
 Largest Abelian subgroup         C1      NOp   1
 Largest concise Abelian subgroup C1      NOp   1
                         Standard orientation:                         
 ---------------------------------------------------------------------
 Center     Atomic      Atomic             Coordinates (Angstroms)
 Number     Number       Type             X           Y           Z
 ---------------------------------------------------------------------
      1          8           0        1.996786   -1.566285   -1.302470
      2          6           0        1.429796   -0.645703   -0.650937
      3          6           0       -0.091007   -0.634749   -0.584638
      4          8           0       -0.555712   -1.074224   -1.836803
      5          6           0       -0.646587    0.766314   -0.272979
      6          6           0       -2.046246    1.040760   -0.330651
      7          6           0       -2.514582    2.357633   -0.052600
      8          6           0       -3.978515    2.722656   -0.092526
      9          6           0       -1.600810    3.360066    0.289214
     10          6           0       -0.247964    3.079535    0.395142
     11          6           0        0.236663    1.795852    0.134015
     12          6           0        1.676152    1.545582    0.339469
     13          6           0        2.252672    0.371672    0.045726
     14          6           0        3.758659    0.149723    0.259907
     15          6           0        4.483209   -0.206646   -1.060345
     16          8           0        4.330669    1.340429    0.754331
     17          6           0        3.949504   -0.983091    1.286982
     18          6           0       -3.031460   -0.087537   -0.585443
     19          6           0       -3.053655   -1.076393    0.590579
     20          6           0       -1.968336   -2.190372    0.564746
     21          6           0       -2.116081   -2.994524    1.880909
     22          6           0       -2.226130   -3.192222   -0.590678
     23          6           0       -0.505281   -1.633781    0.536403
     24          1           0       -0.312881   -0.385474   -2.511570
     25          1           0       -4.385018    2.544888   -1.110337
     26          1           0       -4.147236    3.793528    0.150226
     27          1           0       -4.539138    2.119697    0.652625
     28          1           0       -1.938302    4.366945    0.503377
     29          1           0        0.426598    3.872921    0.695140
     30          1           0        2.270177    2.356356    0.737097
     31          1           0        4.214668    0.521862   -1.855232
     32          1           0        4.237075   -1.232145   -1.406050
     33          1           0        5.584839   -0.172281   -0.919619
     34          1           0        5.279099    1.161295    0.990121
     35          1           0        5.029771   -1.180547    1.456662
     36          1           0        3.489032   -0.702560    2.258520
     37          1           0        3.475591   -1.922347    0.928622
     38          1           0       -2.837728   -0.577562   -1.554180
     39          1           0       -4.063887    0.288766   -0.711833
     40          1           0       -2.983556   -0.501993    1.542157
     41          1           0       -4.054544   -1.564121    0.603442
     42          1           0       -3.135163   -3.430258    1.971128
     43          1           0       -1.945785   -2.344481    2.766643
     44          1           0       -1.381485   -3.828302    1.920959
     45          1           0       -1.436355   -3.973733   -0.613222
     46          1           0       -2.260732   -2.717377   -1.586463
     47          1           0       -3.204553   -3.701310   -0.452018
     48          1           0       -0.288359   -1.143269    1.513092
     49          1           0        0.173917   -2.516519    0.496481
 ---------------------------------------------------------------------
 Rotational constants (GHZ):           0.3759059           0.2129303           0.1574286
 Standard basis: 6-31G(d) (6D, 7F)
 There are   397 symmetry adapted cartesian basis functions of A   symmetry.
 There are   397 symmetry adapted basis functions of A   symmetry.
   397 basis functions,   748 primitive gaussians,   397 cartesian basis functions
    85 alpha electrons       85 beta electrons
       nuclear repulsion energy      2070.5973850837 Hartrees.
 NAtoms=   49 NActive=   49 NUniq=   49 SFac= 1.00D+00 NAtFMM=   60 NAOKFM=F Big=F
 Integral buffers will be    131072 words long.
 Raffenetti 2 integral format.
 Two-electron integral symmetry is turned on.
 One-electron integrals computed using PRISM.
 NBasis=   397 RedAO= T EigKep=  2.66D-04  NBF=   397
 NBsUse=   397 1.00D-06 EigRej= -1.00D+00 NBFU=   397
 ExpMin= 1.61D-01 ExpMax= 5.48D+03 ExpMxC= 8.25D+02 IAcc=3 IRadAn=         5 AccDes= 0.00D+00
 Harris functional with IExCor=  402 and IRadAn=       5 diagonalized for initial guess.
 HarFok:  IExCor=  402 AccDes= 0.00D+00 IRadAn=         5 IDoV= 1 UseB2=F ITyADJ=14
 ICtDFT=  3500011 ScaDFX=  1.000000  1.000000  1.000000  1.000000
 FoFCou: FMM=F IPFlag=           0 FMFlag=      100000 FMFlg1=           0
         NFxFlg=           0 DoJE=T BraDBF=F KetDBF=T FulRan=T
         wScrn=  0.000000 ICntrl=       500 IOpCl=  0 I1Cent=   200000004 NGrid=           0
         NMat0=    1 NMatS0=      1 NMatT0=    0 NMatD0=    1 NMtDS0=    0 NMtDT0=    0
 Petite list used in FoFCou.
 Requested convergence on RMS density matrix=1.00D-08 within 128 cycles.
 Requested convergence on MAX density matrix=1.00D-06.
 Requested convergence on             energy=1.00D-06.
 No special actions if energy rises.
 Integral accuracy reduced to 1.0D-05 until final iterations.
 Initial convergence to 1.0D-05 achieved.  Increase integral accuracy.
 SCF Done:  E(RB3LYP) =  -1003.43410151     A.U. after   15 cycles
            NFock= 15  Conv=0.79D-08     -V/T= 2.0100

 **********************************************************************

            Population analysis using the SCF density.

 **********************************************************************

 Orbital symmetries:
       Occupied  (A) (A) (A) (A) (A) (A) (A) (A) (A) (A) (A) (A)
                 (A) (A) (A) (A) (A) (A) (A) (A) (A) (A) (A) (A)
                 (A) (A) (A) (A) (A) (A) (A) (A) (A) (A) (A) (A)
                 (A) (A) (A) (A) (A) (A) (A) (A) (A) (A) (A) (A)
                 (A) (A) (A) (A) (A) (A) (A) (A) (A) (A) (A) (A)
                 (A) (A) (A) (A) (A) (A) (A) (A) (A) (A) (A) (A)
                 (A) (A) (A) (A) (A) (A) (A) (A) (A) (A) (A) (A)
                 (A)
       Virtual   (A) (A) (A) (A) (A) (A) (A) (A) (A) (A) (A) (A)
                 (A) (A) (A) (A) (A) (A) (A) (A) (A) (A) (A) (A)
                 (A) (A) (A) (A) (A) (A) (A) (A) (A) (A) (A) (A)
                 (A) (A) (A) (A) (A) (A) (A) (A) (A) (A) (A) (A)
                 (A) (A) (A) (A) (A) (A) (A) (A) (A) (A) (A) (A)
                 (A) (A) (A) (A) (A) (A) (A) (A) (A) (A) (A) (A)
                 (A) (A) (A) (A) (A) (A) (A) (A) (A) (A) (A) (A)
                 (A) (A) (A) (A) (A) (A) (A) (A) (A) (A) (A) (A)
                 (A) (A) (A) (A) (A) (A) (A) (A) (A) (A) (A) (A)
                 (A) (A) (A) (A) (A) (A) (A) (A) (A) (A) (A) (A)
                 (A) (A) (A) (A) (A) (A) (A) (A) (A) (A) (A) (A)
                 (A) (A) (A) (A) (A) (A) (A) (A) (A) (A) (A) (A)
                 (A) (A) (A) (A) (A) (A) (A) (A) (A) (A) (A) (A)
                 (A) (A) (A) (A) (A) (A) (A) (A) (A) (A) (A) (A)
                 (A) (A) (A) (A) (A) (A) (A) (A) (A) (A) (A) (A)
                 (A) (A) (A) (A) (A) (A) (A) (A) (A) (A) (A) (A)
                 (A) (A) (A) (A) (A) (A) (A) (A) (A) (A) (A) (A)
                 (A) (A) (A) (A) (A) (A) (A) (A) (A) (A) (A) (A)
                 (A) (A) (A) (A) (A) (A) (A) (A) (A) (A) (A) (A)
                 (A) (A) (A) (A) (A) (A) (A) (A) (A) (A) (A) (A)
                 (A) (A) (A) (A) (A) (A) (A) (A) (A) (A) (A) (A)
                 (A) (A) (A) (A) (A) (A) (A) (A) (A) (A) (A) (A)
                 (A) (A) (A) (A) (A) (A) (A) (A) (A) (A) (A) (A)
                 (A) (A) (A) (A) (A) (A) (A) (A) (A) (A) (A) (A)
                 (A) (A) (A) (A) (A) (A) (A) (A) (A) (A) (A) (A)
                 (A) (A) (A) (A) (A) (A) (A) (A) (A) (A) (A) (A)
 The electronic state is 1-A.
 Alpha  occ. eigenvalues --  -19.15217 -19.14519 -19.12871 -10.26755 -10.25575
 Alpha  occ. eigenvalues --  -10.24787 -10.20277 -10.20262 -10.20215 -10.20140
 Alpha  occ. eigenvalues --  -10.20094 -10.20035 -10.19623 -10.19285 -10.19158
 Alpha  occ. eigenvalues --  -10.19018 -10.18842 -10.18369 -10.18157 -10.17676
 Alpha  occ. eigenvalues --  -10.17524 -10.16541 -10.16436  -1.03943  -1.02215
 Alpha  occ. eigenvalues --   -1.00098  -0.87086  -0.82534  -0.82182  -0.78071
 Alpha  occ. eigenvalues --   -0.77263  -0.75334  -0.74214  -0.70537  -0.68472
 Alpha  occ. eigenvalues --   -0.67716  -0.67000  -0.65795  -0.62972  -0.61377
 Alpha  occ. eigenvalues --   -0.59909  -0.58311  -0.56630  -0.53030  -0.52529
 Alpha  occ. eigenvalues --   -0.50546  -0.48728  -0.48230  -0.46803  -0.46232
 Alpha  occ. eigenvalues --   -0.45342  -0.44571  -0.44013  -0.43329  -0.42856
 Alpha  occ. eigenvalues --   -0.42645  -0.42155  -0.41404  -0.40636  -0.39803
 Alpha  occ. eigenvalues --   -0.39474  -0.39327  -0.38626  -0.38141  -0.37631
 Alpha  occ. eigenvalues --   -0.37295  -0.36655  -0.36264  -0.35941  -0.35447
 Alpha  occ. eigenvalues --   -0.34988  -0.34694  -0.34254  -0.33602  -0.32303
 Alpha  occ. eigenvalues --   -0.31692  -0.31432  -0.30740  -0.29985  -0.28963
 Alpha  occ. eigenvalues --   -0.27440  -0.26383  -0.24316  -0.23365  -0.22055
 Alpha virt. eigenvalues --   -0.06683  -0.01194   0.00405   0.06358   0.06887
 Alpha virt. eigenvalues --    0.07448   0.09259   0.09871   0.10743   0.12278
 Alpha virt. eigenvalues --    0.12441   0.12525   0.13507   0.13990   0.14261
 Alpha virt. eigenvalues --    0.14755   0.15045   0.15732   0.15822   0.16442
 Alpha virt. eigenvalues --    0.16661   0.17227   0.18038   0.18460   0.19180
 Alpha virt. eigenvalues --    0.19215   0.19652   0.20096   0.20426   0.20682
 Alpha virt. eigenvalues --    0.21875   0.21992   0.22715   0.22883   0.23295
 Alpha virt. eigenvalues --    0.23778   0.24863   0.25121   0.25759   0.26513
 Alpha virt. eigenvalues --    0.26577   0.27113   0.27787   0.28739   0.29227
 Alpha virt. eigenvalues --    0.30825   0.33667   0.34255   0.35771   0.36959
 Alpha virt. eigenvalues --    0.38736   0.39686   0.46334   0.47223   0.49149
 Alpha virt. eigenvalues --    0.49555   0.50586   0.51304   0.51766   0.52596
 Alpha virt. eigenvalues --    0.53234   0.53468   0.54323   0.55241   0.55831
 Alpha virt. eigenvalues --    0.55962   0.56955   0.57211   0.57649   0.58237
 Alpha virt. eigenvalues --    0.59545   0.60407   0.60437   0.60823   0.61801
 Alpha virt. eigenvalues --    0.62147   0.62246   0.63493   0.63743   0.64590
 Alpha virt. eigenvalues --    0.65718   0.66145   0.67246   0.67937   0.68739
 Alpha virt. eigenvalues --    0.69698   0.70185   0.71517   0.72630   0.73100
 Alpha virt. eigenvalues --    0.73927   0.74991   0.75248   0.76244   0.76564
 Alpha virt. eigenvalues --    0.77212   0.79438   0.80415   0.81236   0.81650
 Alpha virt. eigenvalues --    0.82229   0.82571   0.84064   0.84290   0.84699
 Alpha virt. eigenvalues --    0.84774   0.85269   0.86163   0.86562   0.86946
 Alpha virt. eigenvalues --    0.88025   0.88836   0.89748   0.89860   0.90174
 Alpha virt. eigenvalues --    0.90658   0.90799   0.91184   0.92658   0.93117
 Alpha virt. eigenvalues --    0.93174   0.93715   0.94108   0.95088   0.95458
 Alpha virt. eigenvalues --    0.95763   0.96207   0.96412   0.97605   0.97896
 Alpha virt. eigenvalues --    0.98760   0.99308   1.00220   1.00991   1.01235
 Alpha virt. eigenvalues --    1.02148   1.04308   1.04499   1.06515   1.07036
 Alpha virt. eigenvalues --    1.09516   1.10523   1.10766   1.11486   1.14157
 Alpha virt. eigenvalues --    1.15583   1.16661   1.18127   1.21835   1.22516
 Alpha virt. eigenvalues --    1.24206   1.25409   1.26897   1.28055   1.28152
 Alpha virt. eigenvalues --    1.31010   1.32761   1.33928   1.36079   1.37640
 Alpha virt. eigenvalues --    1.37788   1.38820   1.40751   1.42319   1.42743
 Alpha virt. eigenvalues --    1.44601   1.45585   1.47338   1.47632   1.49888
 Alpha virt. eigenvalues --    1.52251   1.53759   1.55005   1.55621   1.57432
 Alpha virt. eigenvalues --    1.60186   1.61269   1.62866   1.63245   1.65262
 Alpha virt. eigenvalues --    1.68489   1.70154   1.70326   1.71867   1.73368
 Alpha virt. eigenvalues --    1.74984   1.76616   1.77977   1.78614   1.79540
 Alpha virt. eigenvalues --    1.81009   1.82171   1.82475   1.83251   1.83809
 Alpha virt. eigenvalues --    1.84557   1.85810   1.86228   1.86683   1.87336
 Alpha virt. eigenvalues --    1.87912   1.89084   1.90023   1.90513   1.90873
 Alpha virt. eigenvalues --    1.91850   1.93030   1.96164   1.96786   1.98083
 Alpha virt. eigenvalues --    1.98284   1.99453   2.00455   2.01330   2.02480
 Alpha virt. eigenvalues --    2.03105   2.04171   2.04805   2.05363   2.09199
 Alpha virt. eigenvalues --    2.09807   2.12027   2.13032   2.13778   2.14150
 Alpha virt. eigenvalues --    2.15463   2.17181   2.17284   2.20475   2.21153
 Alpha virt. eigenvalues --    2.21757   2.22199   2.22921   2.23384   2.24546
 Alpha virt. eigenvalues --    2.24718   2.26016   2.26789   2.26961   2.28997
 Alpha virt. eigenvalues --    2.30274   2.30499   2.31731   2.32586   2.34165
 Alpha virt. eigenvalues --    2.34900   2.35796   2.36150   2.36733   2.38379
 Alpha virt. eigenvalues --    2.39533   2.40868   2.41391   2.42507   2.47304
 Alpha virt. eigenvalues --    2.47874   2.49007   2.51989   2.52451   2.54835
 Alpha virt. eigenvalues --    2.56945   2.58158   2.59873   2.61368   2.62618
 Alpha virt. eigenvalues --    2.63530   2.66455   2.68567   2.70523   2.72640
 Alpha virt. eigenvalues --    2.73782   2.73814   2.74333   2.77900   2.78634
 Alpha virt. eigenvalues --    2.81924   2.84756   2.85943   2.88801   2.90789
 Alpha virt. eigenvalues --    2.94102   2.96384   2.99350   3.04981   3.05680
 Alpha virt. eigenvalues --    3.09476   3.14344   3.29932   3.42508   3.88874
 Alpha virt. eigenvalues --    3.96906   4.08877   4.10903   4.13878   4.14024
 Alpha virt. eigenvalues --    4.16306   4.20133   4.23892   4.27419   4.30138
 Alpha virt. eigenvalues --    4.30710   4.33930   4.34589   4.40438   4.43949
 Alpha virt. eigenvalues --    4.48951   4.54288   4.62666   4.68562   4.75215
 Alpha virt. eigenvalues --    4.77734   4.93883
          Condensed to atoms (all electrons):
               1          2          3          4          5          6
     1  O    8.161950   0.481107  -0.069813  -0.007185   0.003708  -0.000063
     2  C    0.481107   4.807913   0.260478  -0.024957  -0.028179   0.004798
     3  C   -0.069813   0.260478   5.158626   0.181879   0.254641  -0.056761
     4  O   -0.007185  -0.024957   0.181879   8.315366  -0.039051  -0.006546
     5  C    0.003708  -0.028179   0.254641  -0.039051   5.165106   0.450559
     6  C   -0.000063   0.004798  -0.056761  -0.006546   0.450559   4.905821
     7  C   -0.000000  -0.000130   0.005714  -0.000068  -0.011234   0.506690
     8  C   -0.000000   0.000001  -0.000087   0.000002   0.008079  -0.063617
     9  C    0.000000   0.000020  -0.000591   0.000007  -0.058752  -0.000500
    10  C   -0.000002  -0.000469   0.009588  -0.000080  -0.037080  -0.060429
    11  C    0.000189  -0.019990  -0.045068   0.001971   0.470648  -0.025390
    12  C    0.004242  -0.015747  -0.034604   0.000300  -0.034243   0.008459
    13  C   -0.089506   0.283305  -0.088297   0.003880  -0.015387  -0.000396
    14  C   -0.001934  -0.045022   0.003667  -0.000036   0.000413   0.000007
    15  C   -0.010105  -0.005091   0.000022  -0.000003  -0.000025  -0.000000
    16  O    0.000049   0.001702  -0.000024   0.000000   0.000010   0.000000
    17  C   -0.004865  -0.000728  -0.000391  -0.000001   0.000032   0.000000
    18  C    0.000004   0.000219  -0.009379  -0.007137  -0.070958   0.371763
    19  C   -0.000002  -0.000089  -0.001896  -0.002441  -0.001107  -0.034218
    20  C   -0.000015   0.002935  -0.019664   0.001666  -0.007271  -0.005535
    21  C   -0.000001  -0.000124   0.004183   0.000024  -0.000107  -0.000013
    22  C    0.000017  -0.000090  -0.005394  -0.004947   0.000124  -0.000205
    23  C   -0.007883  -0.042493   0.333819  -0.045359  -0.048448  -0.006202
    24  H    0.002640  -0.000821  -0.032030   0.227647   0.000838  -0.000005
    25  H    0.000000  -0.000000   0.000002  -0.000001  -0.000155  -0.002239
    26  H    0.000000  -0.000000   0.000001   0.000000  -0.000109   0.002658
    27  H   -0.000000  -0.000000  -0.000001   0.000000  -0.000120  -0.003641
    28  H    0.000000  -0.000000   0.000013  -0.000000   0.001085   0.004457
    29  H   -0.000000   0.000022  -0.000151   0.000001   0.003901   0.001070
    30  H   -0.000078   0.004542  -0.000333   0.000002   0.004241  -0.000070
    31  H   -0.000674   0.000686  -0.000033   0.000001   0.000001   0.000000
    32  H    0.013591   0.000903   0.000254  -0.000003  -0.000008   0.000000
    33  H    0.000745   0.000253   0.000007  -0.000000  -0.000000   0.000000
    34  H    0.000009  -0.000052   0.000003  -0.000000  -0.000000  -0.000000
    35  H    0.000018   0.000024   0.000005   0.000000  -0.000000  -0.000000
    36  H    0.000027  -0.000156   0.000000   0.000000  -0.000009  -0.000000
    37  H    0.007418   0.003833   0.000031   0.000002   0.000001   0.000000
    38  H    0.000002   0.000135   0.000475   0.013741  -0.008308  -0.019672
    39  H    0.000000   0.000004  -0.000092   0.000432   0.004762  -0.029116
    40  H    0.000000  -0.000015  -0.000327   0.000013   0.000447  -0.003364
    41  H    0.000000   0.000002  -0.000054  -0.000016   0.000042   0.004818
    42  H    0.000000   0.000001  -0.000121   0.000000  -0.000003   0.000006
    43  H    0.000000   0.000002   0.000000   0.000001  -0.000011  -0.000027
    44  H   -0.000001  -0.000005   0.000028  -0.000002   0.000009  -0.000001
    45  H    0.000013  -0.000054  -0.000062   0.000003   0.000039  -0.000010
    46  H   -0.000006  -0.000057   0.001008   0.006746   0.000101   0.000167
    47  H   -0.000000   0.000005   0.000094   0.000276  -0.000011   0.000031
    48  H    0.000134  -0.000918  -0.035532   0.002993  -0.002834  -0.000045
    49  H    0.007159  -0.002629  -0.038684  -0.000014   0.006161   0.000006
               7          8          9         10         11         12
     1  O   -0.000000  -0.000000   0.000000  -0.000002   0.000189   0.004242
     2  C   -0.000130   0.000001   0.000020  -0.000469  -0.019990  -0.015747
     3  C    0.005714  -0.000087  -0.000591   0.009588  -0.045068  -0.034604
     4  O   -0.000068   0.000002   0.000007  -0.000080   0.001971   0.000300
     5  C   -0.011234   0.008079  -0.058752  -0.037080   0.470648  -0.034243
     6  C    0.506690  -0.063617  -0.000500  -0.060429  -0.025390   0.008459
     7  C    4.768670   0.344001   0.517887  -0.024147  -0.039886   0.000318
     8  C    0.344001   5.238517  -0.066109   0.008739   0.000137  -0.000002
     9  C    0.517887  -0.066109   5.009973   0.466386  -0.006756   0.007533
    10  C   -0.024147   0.008739   0.466386   5.105344   0.484147  -0.061929
    11  C   -0.039886   0.000137  -0.006756   0.484147   4.785623   0.334515
    12  C    0.000318  -0.000002   0.007533  -0.061929   0.334515   5.238731
    13  C    0.000001  -0.000000  -0.000324   0.009380  -0.022319   0.485723
    14  C    0.000000   0.000000   0.000001  -0.000243   0.004929  -0.042737
    15  C    0.000000   0.000000  -0.000000   0.000002   0.000031   0.001831
    16  O    0.000000   0.000000  -0.000000  -0.000041   0.000727   0.000229
    17  C   -0.000000  -0.000000  -0.000000   0.000001  -0.000175  -0.000610
    18  C   -0.069701  -0.016996   0.008358  -0.000113   0.008081  -0.000132
    19  C   -0.002019   0.000330  -0.000199   0.000059  -0.000235  -0.000001
    20  C   -0.000133   0.000020   0.000005  -0.000005  -0.000030   0.000036
    21  C    0.000005   0.000000  -0.000000  -0.000000   0.000007  -0.000000
    22  C   -0.000016   0.000000   0.000000   0.000000  -0.000007  -0.000001
    23  C   -0.000168  -0.000003   0.000046  -0.000193   0.001095  -0.000377
    24  H   -0.000059   0.000001  -0.000026  -0.000053   0.001388  -0.000158
    25  H   -0.026724   0.358579   0.000591  -0.000256   0.000031   0.000000
    26  H   -0.030902   0.364249  -0.002504   0.000363   0.000002  -0.000000
    27  H   -0.026629   0.359494   0.000453  -0.000227   0.000045   0.000000
    28  H   -0.035252  -0.010533   0.349462  -0.040088   0.002707  -0.000217
    29  H    0.003599  -0.000241  -0.040843   0.351925  -0.040900  -0.006942
    30  H   -0.000015  -0.000000   0.000367  -0.007444  -0.046285   0.352821
    31  H    0.000000  -0.000000  -0.000000  -0.000001  -0.000046   0.001124
    32  H    0.000000   0.000000  -0.000000   0.000000   0.000009  -0.000315
    33  H    0.000000   0.000000   0.000000  -0.000000   0.000002  -0.000065
    34  H    0.000000   0.000000   0.000000   0.000001  -0.000006  -0.000218
    35  H    0.000000   0.000000   0.000000  -0.000000   0.000002  -0.000078
    36  H    0.000000   0.000000  -0.000000  -0.000001  -0.000005   0.001695
    37  H   -0.000000   0.000000  -0.000000   0.000000   0.000011  -0.000171
    38  H    0.003569   0.000117  -0.000163   0.000001  -0.000173   0.000004
    39  H   -0.014960   0.007767   0.000203  -0.000007  -0.000060   0.000002
    40  H    0.001571   0.000007  -0.000074  -0.000049  -0.000147   0.000002
    41  H    0.000156  -0.000078   0.000004  -0.000000   0.000003  -0.000000
    42  H    0.000000  -0.000000  -0.000000   0.000000  -0.000000  -0.000000
    43  H   -0.000001  -0.000000   0.000000   0.000000  -0.000002  -0.000000
    44  H   -0.000000  -0.000000   0.000000  -0.000000   0.000000   0.000000
    45  H    0.000000  -0.000000   0.000000  -0.000000   0.000001  -0.000000
    46  H    0.000001   0.000000  -0.000000   0.000000  -0.000003   0.000000
    47  H    0.000001  -0.000000   0.000000   0.000000  -0.000000   0.000000
    48  H   -0.000065   0.000001  -0.000001  -0.000107   0.000018   0.000904
    49  H    0.000001  -0.000000  -0.000000   0.000006   0.000031  -0.000228
              13         14         15         16         17         18
     1  O   -0.089506  -0.001934  -0.010105   0.000049  -0.004865   0.000004
     2  C    0.283305  -0.045022  -0.005091   0.001702  -0.000728   0.000219
     3  C   -0.088297   0.003667   0.000022  -0.000024  -0.000391  -0.009379
     4  O    0.003880  -0.000036  -0.000003   0.000000  -0.000001  -0.007137
     5  C   -0.015387   0.000413  -0.000025   0.000010   0.000032  -0.070958
     6  C   -0.000396   0.000007  -0.000000   0.000000   0.000000   0.371763
     7  C    0.000001   0.000000   0.000000   0.000000  -0.000000  -0.069701
     8  C   -0.000000   0.000000   0.000000   0.000000  -0.000000  -0.016996
     9  C   -0.000324   0.000001  -0.000000  -0.000000  -0.000000   0.008358
    10  C    0.009380  -0.000243   0.000002  -0.000041   0.000001  -0.000113
    11  C   -0.022319   0.004929   0.000031   0.000727  -0.000175   0.008081
    12  C    0.485723  -0.042737   0.001831   0.000229  -0.000610  -0.000132
    13  C    5.237344   0.349095  -0.062256  -0.050523  -0.066149  -0.000001
    14  C    0.349095   4.642559   0.368323   0.240903   0.363009  -0.000000
    15  C   -0.062256   0.368323   5.252050  -0.063099  -0.070838  -0.000000
    16  O   -0.050523   0.240903  -0.063099   8.319525  -0.052649  -0.000000
    17  C   -0.066149   0.363009  -0.070838  -0.052649   5.251664  -0.000000
    18  C   -0.000001  -0.000000  -0.000000  -0.000000  -0.000000   5.212825
    19  C    0.000001  -0.000000  -0.000000   0.000000   0.000000   0.340742
    20  C   -0.000157   0.000002   0.000000  -0.000000  -0.000000  -0.030731
    21  C    0.000002  -0.000000  -0.000000   0.000000   0.000000   0.004876
    22  C    0.000003  -0.000000  -0.000000  -0.000000   0.000000  -0.004759
    23  C    0.002404  -0.000178   0.000005   0.000000   0.000096  -0.003752
    24  H    0.000923  -0.000014   0.000005  -0.000000   0.000000   0.000500
    25  H   -0.000000  -0.000000   0.000000   0.000000  -0.000000  -0.000390
    26  H    0.000000  -0.000000  -0.000000  -0.000000   0.000000   0.000488
    27  H    0.000000   0.000000  -0.000000  -0.000000   0.000000   0.000172
    28  H    0.000004  -0.000000   0.000000   0.000000   0.000000  -0.000163
    29  H    0.000341  -0.000015  -0.000000  -0.000008  -0.000000   0.000013
    30  H   -0.037955  -0.012535   0.000609   0.017296   0.000971   0.000002
    31  H   -0.004839  -0.026166   0.362107   0.001856   0.005938   0.000000
    32  H   -0.003844  -0.017195   0.340417   0.003695  -0.000754  -0.000000
    33  H    0.005157  -0.027965   0.339364  -0.002945  -0.005912  -0.000000
    34  H    0.008869  -0.023876  -0.005315   0.230669  -0.006202   0.000000
    35  H    0.005829  -0.027622  -0.006771  -0.001872   0.354052   0.000000
    36  H   -0.004544  -0.027342   0.006366   0.001745   0.356629  -0.000000
    37  H   -0.007450  -0.019860  -0.001178   0.003688   0.344481  -0.000000
    38  H   -0.000007   0.000000   0.000000  -0.000000  -0.000000   0.351502
    39  H   -0.000000   0.000000   0.000000   0.000000  -0.000000   0.352728
    40  H    0.000001  -0.000000  -0.000000   0.000000  -0.000000  -0.046472
    41  H   -0.000000   0.000000  -0.000000  -0.000000  -0.000000  -0.035649
    42  H   -0.000000   0.000000  -0.000000  -0.000000  -0.000000   0.000023
    43  H   -0.000001  -0.000000  -0.000000   0.000000  -0.000000   0.000004
    44  H   -0.000000  -0.000000   0.000000   0.000000  -0.000000  -0.000162
    45  H    0.000001  -0.000000   0.000000  -0.000000   0.000000   0.000089
    46  H   -0.000002   0.000000   0.000000  -0.000000   0.000000   0.000831
    47  H   -0.000000   0.000000  -0.000000  -0.000000  -0.000000  -0.000168
    48  H    0.002400  -0.000111   0.000002  -0.000000   0.000043   0.000032
    49  H    0.000529  -0.000025  -0.000005   0.000000   0.000039  -0.000167
              19         20         21         22         23         24
     1  O   -0.000002  -0.000015  -0.000001   0.000017  -0.007883   0.002640
     2  C   -0.000089   0.002935  -0.000124  -0.000090  -0.042493  -0.000821
     3  C   -0.001896  -0.019664   0.004183  -0.005394   0.333819  -0.032030
     4  O   -0.002441   0.001666   0.000024  -0.004947  -0.045359   0.227647
     5  C   -0.001107  -0.007271  -0.000107   0.000124  -0.048448   0.000838
     6  C   -0.034218  -0.005535  -0.000013  -0.000205  -0.006202  -0.000005
     7  C   -0.002019  -0.000133   0.000005  -0.000016  -0.000168  -0.000059
     8  C    0.000330   0.000020   0.000000   0.000000  -0.000003   0.000001
     9  C   -0.000199   0.000005  -0.000000   0.000000   0.000046  -0.000026
    10  C    0.000059  -0.000005  -0.000000   0.000000  -0.000193  -0.000053
    11  C   -0.000235  -0.000030   0.000007  -0.000007   0.001095   0.001388
    12  C   -0.000001   0.000036  -0.000000  -0.000001  -0.000377  -0.000158
[...]
    40  H    0.000025  -0.000001   0.000309   0.000002  -0.000000  -0.000000
    41  H    0.000017  -0.000001  -0.000035  -0.000000   0.000000   0.000000
    42  H    0.000000  -0.000000   0.000000  -0.000000  -0.000000  -0.000000
    43  H    0.000000  -0.000000   0.000000   0.000000  -0.000000   0.000000
    44  H    0.000000   0.000000  -0.000000  -0.000000  -0.000000  -0.000000
    45  H    0.000000   0.000000  -0.000000   0.000000  -0.000000  -0.000000
    46  H   -0.000000   0.000000  -0.000000   0.000000  -0.000000  -0.000000
    47  H    0.000000  -0.000000  -0.000000  -0.000000  -0.000000   0.000000
    48  H   -0.000000  -0.000000   0.000000  -0.000000   0.000000   0.000009
    49  H   -0.000000   0.000000   0.000000   0.000000  -0.000000   0.000001
              31         32         33         34         35         36
     1  O   -0.000056   0.015906   0.000243   0.000009   0.000168  -0.000031
     2  C    0.000257   0.001510   0.000097  -0.000094   0.000102   0.000111
     3  C    0.000002   0.000279   0.000004   0.000004   0.000005   0.000006
     4  O    0.000000  -0.000012  -0.000000  -0.000000   0.000000   0.000000
     5  C   -0.000002  -0.000016  -0.000000  -0.000001  -0.000000  -0.000009
     6  C   -0.000000   0.000000   0.000000  -0.000000   0.000000  -0.000000
     7  C    0.000000   0.000000   0.000000   0.000000   0.000000   0.000000
     8  C    0.000000   0.000000   0.000000   0.000000   0.000000   0.000000
     9  C   -0.000000  -0.000000   0.000000   0.000000   0.000000  -0.000000
    10  C   -0.000002   0.000000  -0.000000   0.000001  -0.000000  -0.000001
    11  C   -0.000023   0.000015   0.000001  -0.000011   0.000001   0.000003
    12  C    0.001758  -0.000240  -0.000061   0.000100  -0.000082   0.001087
    13  C   -0.004823  -0.007149   0.005694   0.009068   0.005609  -0.004328
    14  C   -0.027242  -0.018531  -0.029121  -0.025342  -0.028214  -0.026785
    15  C    0.360091   0.341876   0.352787  -0.004840  -0.007390   0.006218
    16  O    0.001782   0.003613  -0.001921   0.230590  -0.001755   0.001655
    17  C    0.006302  -0.000537  -0.007360  -0.004669   0.354528   0.361312
    18  C    0.000000  -0.000000  -0.000000   0.000000  -0.000000  -0.000000
    19  C    0.000000   0.000000   0.000000  -0.000000  -0.000000  -0.000000
    20  C   -0.000000   0.000000  -0.000000   0.000000   0.000000   0.000000
    21  C    0.000000  -0.000000  -0.000000  -0.000000  -0.000000  -0.000000
    22  C    0.000000  -0.000000   0.000000  -0.000000   0.000000   0.000000
    23  C    0.000000   0.000003   0.000000  -0.000000  -0.000000   0.000008
    24  H    0.000001  -0.000002  -0.000000  -0.000000  -0.000000   0.000000
    25  H   -0.000000   0.000000  -0.000000   0.000000   0.000000   0.000000
    26  H   -0.000000  -0.000000  -0.000000  -0.000000  -0.000000  -0.000000
    27  H    0.000000  -0.000000   0.000000  -0.000000  -0.000000  -0.000000
    28  H    0.000000  -0.000000  -0.000000  -0.000000  -0.000000   0.000000
    29  H   -0.000000   0.000000  -0.000000   0.000000  -0.000000   0.000000
    30  H    0.000201  -0.000042  -0.000032  -0.000843  -0.000025   0.000058
    31  H    0.568794  -0.023790  -0.030911  -0.000478  -0.000085  -0.000204
    32  H   -0.023790   0.527143  -0.023580  -0.000022   0.000375  -0.000103
    33  H   -0.030911  -0.023580   0.598585   0.005533   0.004494  -0.000082
    34  H   -0.000478  -0.000022   0.005533   0.396293   0.005306  -0.000471
    35  H   -0.000085   0.000375   0.004494   0.005306   0.596060  -0.030618
    36  H   -0.000204  -0.000103  -0.000082  -0.000471  -0.030618   0.564537
    37  H   -0.000101   0.000049   0.000432  -0.000059  -0.024460  -0.024192
    38  H   -0.000000   0.000000   0.000000   0.000000   0.000000   0.000000
    39  H   -0.000000   0.000000   0.000000  -0.000000   0.000000  -0.000000
    40  H   -0.000000  -0.000000  -0.000000  -0.000000   0.000000   0.000000
    41  H   -0.000000  -0.000000  -0.000000   0.000000   0.000000  -0.000000
    42  H   -0.000000   0.000000  -0.000000   0.000000   0.000000  -0.000000
    43  H    0.000000  -0.000000   0.000000  -0.000000  -0.000000  -0.000000
    44  H   -0.000000   0.000000   0.000000   0.000000   0.000000   0.000000
    45  H   -0.000000  -0.000000   0.000000  -0.000000  -0.000000   0.000000
    46  H   -0.000000   0.000000   0.000000   0.000000   0.000000  -0.000000
    47  H   -0.000000   0.000000  -0.000000   0.000000   0.000000  -0.000000
    48  H   -0.000000  -0.000001  -0.000000  -0.000000   0.000000   0.000042
    49  H    0.000000  -0.000009  -0.000000  -0.000000  -0.000001  -0.000010
              37         38         39         40         41         42
     1  O    0.014060   0.000001   0.000000   0.000000   0.000000   0.000000
     2  C    0.002557   0.000164   0.000003  -0.000012   0.000002   0.000001
     3  C    0.000268   0.000258  -0.000077  -0.000287  -0.000059  -0.000134
     4  O    0.000001   0.015591   0.000362   0.000010  -0.000015   0.000001
     5  C   -0.000010  -0.009502   0.005316   0.000502   0.000052  -0.000002
     6  C    0.000000  -0.020683  -0.029930  -0.003319   0.004453   0.000006
     7  C    0.000000   0.003622  -0.017188   0.001587   0.000113   0.000000
     8  C    0.000000   0.000126   0.009677   0.000027  -0.000073  -0.000000
     9  C   -0.000000  -0.000177   0.000179  -0.000075   0.000004  -0.000000
    10  C    0.000000   0.000002  -0.000006  -0.000039  -0.000000   0.000000
    11  C    0.000011  -0.000246  -0.000093  -0.000125   0.000004  -0.000000
    12  C   -0.000334   0.000008   0.000002   0.000001  -0.000000  -0.000000
    13  C   -0.007921  -0.000011  -0.000000   0.000001  -0.000000  -0.000000
    14  C   -0.018274   0.000000   0.000000  -0.000000   0.000000   0.000000
    15  C   -0.000858   0.000000   0.000000   0.000000  -0.000000  -0.000000
    16  O    0.003692  -0.000000   0.000000   0.000000  -0.000000  -0.000000
    17  C    0.342853  -0.000000  -0.000000   0.000000  -0.000000  -0.000000
    18  C   -0.000000   0.351478   0.352697  -0.046860  -0.033769   0.000014
    19  C    0.000000  -0.036357  -0.031065   0.365445   0.356951  -0.004872
    20  C    0.000001  -0.006070   0.004149  -0.037169  -0.033578  -0.028503
    21  C   -0.000000   0.000137  -0.000176  -0.006961  -0.005191   0.363687
    22  C   -0.000000   0.001912   0.000048   0.006102  -0.008420  -0.004945
    23  C   -0.000006  -0.002195  -0.000010  -0.003446   0.006008   0.005217
    24  H   -0.000002  -0.000399  -0.000029   0.000000  -0.000000  -0.000000
    25  H   -0.000000   0.000275   0.001915   0.000025   0.000017   0.000000
    26  H   -0.000000  -0.000010   0.000095  -0.000001  -0.000001  -0.000000
    27  H    0.000000  -0.000028   0.000142   0.000309  -0.000035   0.000000
    28  H   -0.000000   0.000003  -0.000013   0.000002  -0.000000  -0.000000
    29  H    0.000000  -0.000000  -0.000000  -0.000000   0.000000  -0.000000
    30  H   -0.000040  -0.000000  -0.000000  -0.000000   0.000000  -0.000000
    31  H   -0.000101  -0.000000  -0.000000  -0.000000  -0.000000  -0.000000
    32  H    0.000049   0.000000   0.000000  -0.000000  -0.000000   0.000000
    33  H    0.000432   0.000000   0.000000  -0.000000  -0.000000  -0.000000
    34  H   -0.000059   0.000000  -0.000000  -0.000000   0.000000   0.000000
    35  H   -0.024460   0.000000   0.000000   0.000000   0.000000   0.000000
    36  H   -0.024192   0.000000  -0.000000   0.000000  -0.000000  -0.000000
    37  H    0.532277   0.000000  -0.000000  -0.000000   0.000000   0.000000
    38  H    0.000000   0.545979  -0.032338   0.005330   0.000077   0.000005
    39  H   -0.000000  -0.032338   0.609354  -0.000585  -0.006786  -0.000000
    40  H   -0.000000   0.005330  -0.000585   0.619139  -0.035874  -0.000038
    41  H    0.000000   0.000077  -0.006786  -0.035874   0.618548   0.004597
    42  H    0.000000   0.000005  -0.000000  -0.000038   0.004597   0.582154
    43  H   -0.000000   0.000003  -0.000001   0.005828  -0.000248  -0.030229
    44  H    0.000000   0.000000   0.000003   0.000052  -0.000110  -0.030125
    45  H   -0.000000  -0.000191   0.000004  -0.000185   0.000025  -0.000118
    46  H   -0.000000   0.003959  -0.000112  -0.000092  -0.000067  -0.000003
    47  H    0.000000   0.000168  -0.000031  -0.000017   0.005604   0.004840
    48  H   -0.000006   0.000027  -0.000004   0.002701  -0.000121   0.000126
    49  H    0.000051  -0.000028   0.000003  -0.000064  -0.000152  -0.000082
              43         44         45         46         47         48
     1  O    0.000000  -0.000005   0.000006  -0.000011  -0.000000   0.000138
     2  C    0.000001  -0.000007  -0.000050  -0.000072   0.000004  -0.001254
     3  C   -0.000010   0.000038   0.000001   0.000890   0.000084  -0.040027
     4  O    0.000001  -0.000003   0.000011   0.008573   0.000268   0.003457
     5  C   -0.000008   0.000009   0.000029   0.000147  -0.000012  -0.001054
     6  C   -0.000028  -0.000001  -0.000008   0.000165   0.000034  -0.000166
     7  C   -0.000001  -0.000000   0.000000   0.000000   0.000001  -0.000059
     8  C   -0.000000   0.000000  -0.000000   0.000000  -0.000000   0.000000
     9  C    0.000000   0.000000   0.000000  -0.000000   0.000000  -0.000002
    10  C    0.000000  -0.000000  -0.000000   0.000000   0.000000  -0.000069
    11  C   -0.000001   0.000000   0.000000  -0.000002  -0.000000   0.000124
    12  C   -0.000000   0.000000  -0.000000  -0.000000   0.000000   0.000522
    13  C   -0.000000  -0.000001   0.000000  -0.000002  -0.000000   0.001879
    14  C   -0.000000  -0.000000  -0.000000   0.000000   0.000000  -0.000070
    15  C   -0.000000  -0.000000   0.000000  -0.000000  -0.000000   0.000001
    16  O    0.000000   0.000000  -0.000000  -0.000000  -0.000000  -0.000000
    17  C   -0.000000  -0.000000   0.000000  -0.000000  -0.000000   0.000026
    18  C    0.000008  -0.000160   0.000089   0.000552  -0.000201  -0.000025
    19  C   -0.006288   0.005596   0.005456  -0.004115  -0.005793  -0.003693
    20  C   -0.027540  -0.027921  -0.028127  -0.024392  -0.031918  -0.033631
    21  C    0.362910   0.363634  -0.005187   0.005225  -0.007065  -0.007735
    22  C    0.005949  -0.004658   0.367397   0.367353   0.357105   0.006119
    23  C   -0.006378  -0.004646  -0.006494  -0.004659   0.005611   0.352048
    24  H   -0.000000  -0.000000  -0.000014  -0.000005  -0.000012  -0.000242
    25  H    0.000000   0.000000   0.000000  -0.000000   0.000000  -0.000000
    26  H   -0.000000   0.000000   0.000000   0.000000  -0.000000  -0.000000
    27  H    0.000000  -0.000000  -0.000000  -0.000000  -0.000000   0.000000
    28  H    0.000000  -0.000000   0.000000   0.000000  -0.000000  -0.000000
    29  H   -0.000000  -0.000000  -0.000000  -0.000000  -0.000000   0.000000
    30  H    0.000000  -0.000000  -0.000000  -0.000000   0.000000   0.000009
    31  H    0.000000  -0.000000  -0.000000  -0.000000  -0.000000  -0.000000
    32  H   -0.000000   0.000000  -0.000000   0.000000   0.000000  -0.000001
    33  H    0.000000   0.000000   0.000000   0.000000  -0.000000  -0.000000
    34  H   -0.000000   0.000000  -0.000000   0.000000   0.000000  -0.000000
    35  H   -0.000000   0.000000  -0.000000   0.000000   0.000000   0.000000
    36  H   -0.000000   0.000000   0.000000  -0.000000  -0.000000   0.000042
    37  H   -0.000000   0.000000  -0.000000  -0.000000   0.000000  -0.000006
    38  H    0.000003   0.000000  -0.000191   0.003959   0.000168   0.000027
    39  H   -0.000001   0.000003   0.000004  -0.000112  -0.000031  -0.000004
    40  H    0.005828   0.000052  -0.000185  -0.000092  -0.000017   0.002701
    41  H   -0.000248  -0.000110   0.000025  -0.000067   0.005604  -0.000121
    42  H   -0.030229  -0.030125  -0.000118  -0.000003   0.004840   0.000126
    43  H    0.585045  -0.030695  -0.000034  -0.000190   0.000021   0.005660
    44  H   -0.030695   0.579456   0.004155  -0.000050  -0.000127  -0.000244
    45  H   -0.000034   0.004155   0.576106  -0.027187  -0.031515  -0.000017
    46  H   -0.000190  -0.000050  -0.027187   0.525881  -0.028388  -0.000106
    47  H    0.000021  -0.000127  -0.031515  -0.028388   0.606827  -0.000182
    48  H    0.005660  -0.000244  -0.000017  -0.000106  -0.000182   0.611895
    49  H   -0.000196   0.004282   0.005673   0.000022   0.000079  -0.031036
              49
     1  O    0.015130
     2  C   -0.006397
     3  C   -0.041623
     4  O    0.000063
     5  C    0.005936
     6  C    0.000037
     7  C    0.000002
     8  C   -0.000000
     9  C   -0.000000
    10  C    0.000006
    11  C   -0.000010
    12  C   -0.000223
    13  C    0.001341
    14  C   -0.000049
    15  C    0.000001
    16  O    0.000000
    17  C    0.000052
    18  C   -0.000162
    19  C    0.005563
    20  C   -0.030915
    21  C   -0.004743
    22  C   -0.007886
    23  C    0.348073
    24  H   -0.000271
    25  H   -0.000000
    26  H    0.000000
    27  H    0.000000
    28  H    0.000000
    29  H   -0.000000
    30  H    0.000001
    31  H    0.000000
    32  H   -0.000009
    33  H   -0.000000
    34  H   -0.000000
    35  H   -0.000001
    36  H   -0.000010
    37  H    0.000051
    38  H   -0.000028
    39  H    0.000003
    40  H   -0.000064
    41  H   -0.000152
    42  H   -0.000082
    43  H   -0.000196
    44  H    0.004282
    45  H    0.005673
    46  H    0.000022
    47  H    0.000079
    48  H   -0.031036
    49  H    0.572508
 Mulliken charges:
               1
     1  O   -0.486050
     2  C    0.337421
     3  C    0.184446
     4  O   -0.624373
     5  C    0.032293
     6  C    0.053052
     7  C    0.133366
     8  C   -0.542231
     9  C   -0.187413
    10  C   -0.201488
    11  C    0.159675
    12  C   -0.255294
    13  C    0.058052
    14  C    0.285274
    15  C   -0.465666
    16  O   -0.655781
    17  C   -0.467889
    18  C   -0.357996
    19  C   -0.257841
    20  C    0.091137
    21  C   -0.446599
    22  C   -0.448654
    23  C   -0.289892
    24  H    0.393042
    25  H    0.167458
    26  H    0.155662
    27  H    0.167226
    28  H    0.125400
    29  H    0.134709
    30  H    0.176688
    31  H    0.148528
    32  H    0.183264
    33  H    0.125200
    34  H    0.389925
    35  H    0.125981
    36  H    0.151795
    37  H    0.180014
    38  H    0.179112
    39  H    0.134494
    40  H    0.128087
    41  H    0.128042
    42  H    0.138404
    43  H    0.136422
    44  H    0.141527
    45  H    0.140172
    46  H    0.176687
    47  H    0.124616
    48  H    0.134966
    49  H    0.165033
 Sum of Mulliken charges =  -0.00000
 Mulliken charges with hydrogens summed into heavy atoms:
               1
     1  O   -0.486050
     2  C    0.337421
     3  C    0.184446
     4  O   -0.231331
     5  C    0.032293
     6  C    0.053052
     7  C    0.133366
     8  C   -0.051885
     9  C   -0.062013
    10  C   -0.066779
    11  C    0.159675
    12  C   -0.078606
    13  C    0.058052
    14  C    0.285274
    15  C   -0.008675
    16  O   -0.265857
    17  C   -0.010099
    18  C   -0.044390
    19  C   -0.001713
    20  C    0.091137
    21  C   -0.030245
    22  C   -0.007180
    23  C    0.010107
 Electronic spatial extent (au):  <R**2>=           7414.7741
 Charge=             -0.0000 electrons
 Dipole moment (field-independent basis, Debye):
    X=             -0.2787    Y=              2.4341    Z=              0.5681  Tot=              2.5150
 Quadrupole moment (field-independent basis, Debye-Ang):
   XX=           -121.9617   YY=           -139.0686   ZZ=           -137.6661
   XY=             -0.7355   XZ=              1.4468   YZ=             -3.9040
 Traceless Quadrupole moment (field-independent basis, Debye-Ang):
   XX=             10.9371   YY=             -6.1698   ZZ=             -4.7673
   XY=             -0.7355   XZ=              1.4468   YZ=             -3.9040
 Octapole moment (field-independent basis, Debye-Ang**2):
  XXX=             89.5079  YYY=             27.4791  ZZZ=            -23.5861  XYY=            -11.4350
  XXY=             14.7459  XXZ=              7.5294  XZZ=             10.1534  YZZ=             -0.0657
  YYZ=             13.1041  XYZ=             -3.3955
 Hexadecapole moment (field-independent basis, Debye-Ang**3):
 XXXX=          -5267.1227 YYYY=          -3111.7820 ZZZZ=           -743.4984 XXXY=             26.5125
 XXXZ=            100.3829 YYYX=            -21.6515 YYYZ=             35.8354 ZZZX=             12.7303
 ZZZY=             15.3502 XXYY=          -1525.0207 XXZZ=          -1138.3535 YYZZ=           -701.1911
 XXYZ=             -1.4756 YYXZ=              9.9435 ZZXY=              3.8915
 N-N= 2.070200651755D+03 E-N=-6.472780250987D+03  KE= 9.940127292159D+02
 1\1\GINC-C141\FOpt\RB3LYP\6-31G(d)\C20H26O3\ROOT\28-Dec-2023\0\\# opt 
 b3lyp/6-31g(d)\\molecule_2_1\\0,1\O,1.7728019249,-2.3547568074,-0.1848
 929198\C,1.4801426772,-1.1638622755,-0.135616122\C,-0.0197963206,-0.78
 70785236,-0.4109248625\O,-0.4096796744,-1.5238906541,-1.5783968499\C,-
 0.2826714745,0.7127354823,-0.6006814641\C,-1.5576557581,1.1917901418,-
 0.9625803843\C,-1.7536905873,2.581965974,-1.1503734024\C,-3.0955353376
 ,3.1589577622,-1.5493222411\C,-0.6838912541,3.4632356759,-0.9527129109
 \C,0.5611839654,2.9968779223,-0.563484137\C,0.7756069526,1.6228297336,
 -0.3853778699\C,2.0951547543,1.1747156671,0.023746378\C,2.465557578,-0
 .119462772,0.1690743977\C,3.8878818948,-0.5100554457,0.5702235766\C,4.
 6077032191,-1.2363281821,-0.5813985934\O,4.5715986313,0.7264156425,0.8
 405960074\C,3.8831263007,-1.3668328412,1.8492959855\C,-2.7347157637,0.
 241903257,-1.0806050711\C,-3.1349457418,-0.3696132668,0.2812348206\C,-
 2.3281022263,-1.6031722368,0.7497439517\C,-2.76956375,-1.9286379384,2.
 1946312298\C,-2.6678078528,-2.8298124066,-0.1257060341\C,-0.7913508617
 ,-1.3671621235,0.8089711937\H,0.2045345284,-1.2907602157,-2.2928156625
 \H,-3.447778234,2.7613850694,-2.5089994447\H,-3.0292486613,4.246590886
 4,-1.648790746\H,-3.8750046015,2.9434191174,-0.8082966358\H,-0.8401068
 862,4.5295620468,-1.0959022891\H,1.38177329,3.6898974303,-0.3956352939
 \H,2.8373472651,1.9447223058,0.2104304948\H,4.6543683104,-0.5868405413
 ,-1.4615734508\H,4.093140398,-2.1631299352,-0.8424215314\H,5.635105260
 5,-1.4831252078,-0.2810335464\H,5.4813979333,0.4933527963,1.0818713022
 \H,4.9145617426,-1.6096430169,2.1376086146\H,3.4193260804,-0.811284790
 3,2.6706800212\H,3.3419445185,-2.3026641952,1.6945640386\H,-2.50079785
 52,-0.5543906949,-1.7906053559\H,-3.5975917005,0.7762032164,-1.4828528
 76\H,-3.0778334079,0.415571192,1.0483593588\H,-4.1906367903,-0.6704458
 022,0.2326159251\H,-3.8436254832,-2.1484802983,2.2312325646\H,-2.57517
 12145,-1.0890664775,2.8735169678\H,-2.2375111993,-2.8057224913,2.58269
 29859\H,-2.1214314964,-3.7135520127,0.2247335968\H,-2.4034688437,-2.68
 21145767,-1.1733111492\H,-3.7405657998,-3.0527439373,-0.0604819601\H,-
 0.56584726,-0.703579033,1.655116698\H,-0.328031189,-2.3346726194,1.031
 782695\\Version=ES64L-G16RevA.03\State=1-A\HF=-1003.4501908\RMSD=4.924
 e-09\RMSF=2.939e-06\Dipole=0.0573894,0.9850087,-0.0743181\Quadrupole=7
 .3095535,-5.7673845,-1.5421691,-2.0968237,2.1130179,-2.5191042\PG=C01 
 [X(C20H26O3)]\\@


 THESE ARE THE TIMES THAT TRY MENS SOULS.
 THE SUMMER SOLDIER AND THE SUNSHINE PATRIOT WILL IN THIS CRISIS,
 SHRINK FROM THE SERVICE OF HIS COUNTRY.  BUT HE THAT STANDS NOW,
 DESERVES THE LOVE AND THANKS OF MAN AND WOMAN.
 TYRANNY, LIKE HELL, IS NOT EASILY CONQUERED,
 YET WE HAVE THIS CONSOLATION WITH US,
 THAT THE HARDER THE CONFLICT, THE MORE GLORIOUS THE TRIUMPH.
 WHAT WE OBTAIN TOO CHEAP, WE ESTEEM TOO LIGHTLY, 
 'TIS DEARNESS ONLY THAT GIVES EVERYTHING ITS VALUE.

                                              -- TOM PAINE
 Job cpu time:       0 days  2 hours 25 minutes 31.1 seconds.
 Elapsed time:       0 days  0 hours  4 minutes 37.1 seconds.
 File lengths (MBytes):  RWF=    104 Int=      0 D2E=      0 Chk=     14 Scr=      1
 Normal termination of Gaussian 16 at Thu Dec 28 10:06:00 2023.
