 Entering Gaussian System, Link 0=g16
 Input=molecule_10_1.com
 Output=molecule_10_1.log
 Initial command:
 /share/apps/g16/A03/l1.exe "/tmp/954078.tmpdir/scr/Gau-10992.inp" -scrdir="/tmp/954078.tmpdir/scr/"
 Entering Link 1 = /share/apps/g16/A03/l1.exe PID=     10993.
  
 Copyright (c) 1988,1990,1992,1993,1995,1998,2003,2009,2016,
            Gaussian, Inc.  All Rights Reserved.
  
 This is part of the Gaussian(R) 16 program.  It is based on
 the Gaussian(R) 09 system (copyright 2009, Gaussian, Inc.),
 the Gaussian(R) 03 system (copyright 2003, Gaussian, Inc.),
 the Gaussian(R) 98 system (copyright 1998, Gaussian, Inc.),
 the Gaussian(R) 94 system (copyright 1995, Gaussian, Inc.),
 the Gaussian 92(TM) system (copyright 1992, Gaussian, Inc.),
 the Gaussian 90(TM) system (copyright 1990, Gaussian, Inc.),
 the Gaussian 88(TM) system (copyright 1988, Gaussian, Inc.),
 the Gaussian 86(TM) system (copyright 1986, Carnegie Mellon
 University), and the Gaussian 82(TM) system (copyright 1983,
 Carnegie Mellon University). Gaussian is a federally registered
 trademark of Gaussian, Inc.
  
 This software contains proprietary and confidential information,
 including trade secrets, belonging to Gaussian, Inc.
  
 This software is provided under written license and may be
 used, copied, transmitted, or stored only in accord with that
 written license.
  
 The following legend is applicable only to US Government
 contracts under FAR:
  
                    RESTRICTED RIGHTS LEGEND
  
 Use, reproduction and disclosure by the US Government is
 subject to restrictions as set forth in subparagraphs (a)
 and (c) of the Commercial Computer Software - Restricted
 Rights clause in FAR 52.227-19.
  
 Gaussian, Inc.
 340 Quinnipiac St., Bldg. 40, Wallingford CT 06492
  
  
 ---------------------------------------------------------------
 Warning -- This program may not be used in any manner that
 competes with the business of Gaussian, Inc. or will provide
 assistance to any competitor of Gaussian, Inc.  The licensee
 of this program is prohibited from giving any competitor of
 Gaussian, Inc. access to this program.  By using this program,
 the user acknowledges that Gaussian, Inc. is engaged in the
 business of creating and licensing software in the field of
 computational chemistry and represents and warrants to the
 licensee that it is not a competitor of Gaussian, Inc. and that
 it will not use this program in any manner prohibited above.
 ---------------------------------------------------------------
  

 Cite this work as:
 Gaussian 16, Revision A.03,
 M. J. Frisch, G. W. Trucks, H. B. Schlegel, G. E. Scuseria, 
 M. A. Robb, J. R. Cheeseman, G. Scalmani, V. Barone, 
 G. A. Petersson, H. Nakatsuji, X. Li, M. Caricato, A. V. Marenich, 
 J. Bloino, B. G. Janesko, R. Gomperts, B. Mennucci, H. P. Hratchian, 
 J. V. Ortiz, A. F. Izmaylov, J. L. Sonnenberg, D. Williams-Young, 
 F. Ding, F. Lipparini, F. Egidi, J. Goings, B. Peng, A. Petrone, 
 T. Henderson, D. Ranasinghe, V. G. Zakrzewski, J. Gao, N. Rega, 
 G. Zheng, W. Liang, M. Hada, M. Ehara, K. Toyota, R. Fukuda, 
 J. Hasegawa, M. Ishida, T. Nakajima, Y. Honda, O. Kitao, H. Nakai, 
 T. Vreven, K. Throssell, J. A. Montgomery, Jr., J. E. Peralta, 
 F. Ogliaro, M. J. Bearpark, J. J. Heyd, E. N. Brothers, K. N. Kudin, 
 V. N. Staroverov, T. A. Keith, R. Kobayashi, J. Normand, 
 K. Raghavachari, A. P. Rendell, J. C. Burant, S. S. Iyengar, 
 J. Tomasi, M. Cossi, J. M. Millam, M. Klene, C. Adamo, R. Cammi, 
 J. W. Ochterski, R. L. Martin, K. Morokuma, O. Farkas, 
 J. B. Foresman, and D. J. Fox, Gaussian, Inc., Wallingford CT, 2016.
 
 ******************************************
 Gaussian 16:  ES64L-G16RevA.03 25-Dec-2016
                28-Dec-2023 
 ******************************************
 %nprocs=32
 Will use up to   32 processors via shared memory.
 %chk=molecule_10_1.chk
 %mem=10GB
 --------------------
 # opt b3lyp/6-31g(d)
 --------------------
 1/18=20,19=15,26=3,38=1/1,3;
 2/9=110,12=2,17=6,18=5,40=1/2;
 3/5=1,6=6,7=1,11=2,25=1,30=1,71=1,74=-5/1,2,3;
 4//1;
 5/5=2,38=5/2;
 6/7=2,8=2,9=2,10=2,28=1/1;
 7//1,2,3,16;
 1/18=20,19=15,26=3/3(2);
 2/9=110/2;
 99//99;
 2/9=110/2;
 3/5=1,6=6,7=1,11=2,25=1,30=1,71=1,74=-5/1,2,3;
 4/5=5,16=3,69=1/1;
 5/5=2,38=5/2;
 7//1,2,3,16;
 1/18=20,19=15,26=3/3(-5);
 2/9=110/2;
 6/7=2,8=2,9=2,10=2,19=2,28=1/1;
 99/9=1/99;
 -------------
 molecule_10_1
 -------------
 Symbolic Z-matrix:
 Charge =  0 Multiplicity = 1
 C                     5.86651   1.0657    4.5615 
 O                     4.5519    0.6321    4.2409 
 C                     4.0364    0.5539    2.9381 
 C                     4.7945    0.9068    1.8046 
 C                     4.2437    0.7853    0.52 
 C                     2.9256    0.2936    0.3628 
 C                     2.3743    0.1469   -0.9207 
 C                     3.1388    0.518    -2.0523 
 C                     2.5581    0.36     -3.4007 
 O                     3.2047    0.6913   -4.4331 
 C                     4.4392    1.0227   -1.8852 
 C                     4.9904    1.1482   -0.6097 
 C                     2.166    -0.0317    1.4965 
 O                     0.8435   -0.4717    1.3759 
 C                     0.2276   -0.8962    0.1515 
 C                    -1.1751   -0.287     0.1225 
 C                    -1.2939    1.1078    0.2028 
 C                    -2.5284    1.7301    0.0676 
 C                    -3.6783    0.9822   -0.225 
 C                    -3.5821   -0.4357   -0.317 
 C                    -4.7156   -1.1547   -0.747 
 C                    -5.9258   -0.5082   -0.9785 
 C                    -6.0433    0.8746   -0.8214 
 O                    -7.291     1.4708   -1.0195 
 C                    -4.9105    1.6409   -0.4607 
 O                    -4.9488    3.0452   -0.3284 
 C                    -6.09233   3.87692  -0.5249 
 C                    -2.3348   -1.0743   -0.0413 
 C                    -2.1909   -2.5371    0.1565 
 O                    -3.1809   -3.2632    0.4463 
 C                     0.2608   -2.4154    0.1476 
 O                     1.5335   -3.0159    0.1603 
 C                     1.84399  -4.2787    0.74071 
 C                    -0.8628   -3.1508    0.1476 
 C                     1.0009   -0.4175   -1.0791 
 C                     0.4765   -0.5918   -2.3106 
 C                     1.2096   -0.2019   -3.5235 
 O                     0.6825   -0.3586   -4.6556 
 C                     2.7205    0.1052    2.7721 
 H                     6.01778   0.99069   5.65871 
 H                     6.00494   2.11986   4.25553 
 H                     6.61314   0.42197   4.05435 
 H                     5.8085    1.2727    1.915 
 H                     5.0355    1.3126   -2.7431 
 H                     6.0013    1.5309   -0.5058 
 H                    -0.4138    1.722     0.3549 
 H                    -2.565     2.8108    0.1392 
 H                    -4.6854   -2.2141   -0.9572 
 H                    -6.7851   -1.0916   -1.2862 
 H                    -8.1074    0.931    -1.2813 
 H                    -5.77828   4.93913  -0.5002 
 H                    -6.55705   3.6668   -1.51361 
 H                    -6.82773   3.73335   0.30319 
 H                     1.62756  -4.2625    1.8268 
 H                     2.92198  -4.4954    0.59498 
 H                     1.25683  -5.07579   0.24352 
 H                    -0.8177   -4.229     0.1819 
 H                    -0.5041   -1.0378   -2.4259 
 H                     2.1279   -0.153     3.6428 
 

 GradGradGradGradGradGradGradGradGradGradGradGradGradGradGradGradGradGrad
 Berny optimization.
 Initialization pass.
                           ----------------------------
                           !    Initial Parameters    !
                           ! (Angstroms and Degrees)  !
 --------------------------                            --------------------------
 ! Name  Definition              Value          Derivative Info.                !
 --------------------------------------------------------------------------------
 ! R1    R(1,2)                  1.4209         estimate D2E/DX2                !
 ! R2    R(1,40)                 1.1101         estimate D2E/DX2                !
 ! R3    R(1,41)                 1.1064         estimate D2E/DX2                !
 ! R4    R(1,42)                 1.1086         estimate D2E/DX2                !
 ! R5    R(2,3)                  1.4033         estimate D2E/DX2                !
 ! R6    R(3,4)                  1.4086         estimate D2E/DX2                !
 ! R7    R(3,39)                 1.4002         estimate D2E/DX2                !
 ! R8    R(4,5)                  1.403          estimate D2E/DX2                !
 ! R9    R(4,43)                 1.0836         estimate D2E/DX2                !
 ! R10   R(5,6)                  1.4156         estimate D2E/DX2                !
 ! R11   R(5,12)                 1.402          estimate D2E/DX2                !
 ! R12   R(6,7)                  1.4046         estimate D2E/DX2                !
 ! R13   R(6,13)                 1.4029         estimate D2E/DX2                !
 ! R14   R(7,8)                  1.4152         estimate D2E/DX2                !
 ! R15   R(7,35)                 1.4933         estimate D2E/DX2                !
 ! R16   R(8,9)                  1.4766         estimate D2E/DX2                !
 ! R17   R(8,11)                 1.4049         estimate D2E/DX2                !
 ! R18   R(9,10)                 1.2624         estimate D2E/DX2                !
 ! R19   R(9,37)                 1.466          estimate D2E/DX2                !
 ! R20   R(11,12)                1.3952         estimate D2E/DX2                !
 ! R21   R(11,44)                1.0843         estimate D2E/DX2                !
 ! R22   R(12,45)                1.0859         estimate D2E/DX2                !
 ! R23   R(13,14)                1.399          estimate D2E/DX2                !
 ! R24   R(13,39)                1.3976         estimate D2E/DX2                !
 ! R25   R(14,15)                1.4348         estimate D2E/DX2                !
 ! R26   R(15,16)                1.5296         estimate D2E/DX2                !
 ! R27   R(15,31)                1.5196         estimate D2E/DX2                !
 ! R28   R(15,35)                1.5302         estimate D2E/DX2                !
 ! R29   R(16,17)                1.4022         estimate D2E/DX2                !
 ! R30   R(16,28)                1.4112         estimate D2E/DX2                !
 ! R31   R(17,18)                1.3891         estimate D2E/DX2                !
 ! R32   R(17,46)                1.084          estimate D2E/DX2                !
 ! R33   R(18,19)                1.4026         estimate D2E/DX2                !
 ! R34   R(18,47)                1.0837         estimate D2E/DX2                !
 ! R35   R(19,20)                1.4241         estimate D2E/DX2                !
 ! R36   R(19,25)                1.417          estimate D2E/DX2                !
 ! R37   R(20,21)                1.4095         estimate D2E/DX2                !
 ! R38   R(20,28)                1.4281         estimate D2E/DX2                !
 ! R39   R(21,22)                1.3915         estimate D2E/DX2                !
 ! R40   R(21,48)                1.0805         estimate D2E/DX2                !
 ! R41   R(22,23)                1.3966         estimate D2E/DX2                !
 ! R42   R(22,49)                1.0833         estimate D2E/DX2                !
 ! R43   R(23,24)                1.3969         estimate D2E/DX2                !
 ! R44   R(23,25)                1.4144         estimate D2E/DX2                !
 ! R45   R(24,50)                1.0131         estimate D2E/DX2                !
 ! R46   R(25,26)                1.411          estimate D2E/DX2                !
 ! R47   R(26,27)                1.4276         estimate D2E/DX2                !
 ! R48   R(27,51)                1.1079         estimate D2E/DX2                !
 ! R49   R(27,52)                1.1125         estimate D2E/DX2                !
 ! R50   R(27,53)                1.1168         estimate D2E/DX2                !
 ! R51   R(28,29)                1.4831         estimate D2E/DX2                !
 ! R52   R(29,30)                1.2615         estimate D2E/DX2                !
 ! R53   R(29,34)                1.4631         estimate D2E/DX2                !
 ! R54   R(31,32)                1.4073         estimate D2E/DX2                !
 ! R55   R(31,34)                1.3429         estimate D2E/DX2                !
 ! R56   R(32,33)                1.4241         estimate D2E/DX2                !
 ! R57   R(33,54)                1.1076         estimate D2E/DX2                !
 ! R58   R(33,55)                1.1092         estimate D2E/DX2                !
 ! R59   R(33,56)                1.1078         estimate D2E/DX2                !
 ! R60   R(34,57)                1.0797         estimate D2E/DX2                !
 ! R61   R(35,36)                1.3498         estimate D2E/DX2                !
 ! R62   R(36,37)                1.4699         estimate D2E/DX2                !
 ! R63   R(36,58)                1.0834         estimate D2E/DX2                !
 ! R64   R(37,38)                1.2586         estimate D2E/DX2                !
 ! R65   R(39,59)                1.0844         estimate D2E/DX2                !
 ! A1    A(2,1,40)             109.175          estimate D2E/DX2                !
 ! A2    A(2,1,41)             110.1281         estimate D2E/DX2                !
 ! A3    A(2,1,42)             110.0404         estimate D2E/DX2                !
 ! A4    A(40,1,41)            108.7034         estimate D2E/DX2                !
 ! A5    A(40,1,42)            108.7314         estimate D2E/DX2                !
 ! A6    A(41,1,42)            110.0281         estimate D2E/DX2                !
 ! A7    A(1,2,3)              124.4966         estimate D2E/DX2                !
 ! A8    A(2,3,4)              122.373          estimate D2E/DX2                !
 ! A9    A(2,3,39)             118.2407         estimate D2E/DX2                !
 ! A10   A(4,3,39)             119.3862         estimate D2E/DX2                !
 ! A11   A(3,4,5)              120.2534         estimate D2E/DX2                !
 ! A12   A(3,4,43)             120.4131         estimate D2E/DX2                !
 ! A13   A(5,4,43)             119.3334         estimate D2E/DX2                !
 ! A14   A(4,5,6)              119.8229         estimate D2E/DX2                !
 ! A15   A(4,5,12)             120.4174         estimate D2E/DX2                !
 ! A16   A(6,5,12)             119.7597         estimate D2E/DX2                !
 ! A17   A(5,6,7)              120.214          estimate D2E/DX2                !
 ! A18   A(5,6,13)             119.6678         estimate D2E/DX2                !
 ! A19   A(7,6,13)             120.1138         estimate D2E/DX2                !
 ! A20   A(6,7,8)              119.4241         estimate D2E/DX2                !
 ! A21   A(6,7,35)             119.8284         estimate D2E/DX2                !
 ! A22   A(8,7,35)             120.7402         estimate D2E/DX2                !
 ! A23   A(7,8,9)              119.3201         estimate D2E/DX2                !
 ! A24   A(7,8,11)             119.9432         estimate D2E/DX2                !
 ! A25   A(9,8,11)             120.7356         estimate D2E/DX2                !
 ! A26   A(8,9,10)             121.1501         estimate D2E/DX2                !
 ! A27   A(8,9,37)             118.6358         estimate D2E/DX2                !
 ! A28   A(10,9,37)            120.2127         estimate D2E/DX2                !
 ! A29   A(8,11,12)            120.448          estimate D2E/DX2                !
 ! A30   A(8,11,44)            120.7308         estimate D2E/DX2                !
 ! A31   A(12,11,44)           118.8188         estimate D2E/DX2                !
 ! A32   A(5,12,11)            120.1974         estimate D2E/DX2                !
 ! A33   A(5,12,45)            120.6608         estimate D2E/DX2                !
 ! A34   A(11,12,45)           119.1417         estimate D2E/DX2                !
 ! A35   A(6,13,14)            121.0054         estimate D2E/DX2                !
 ! A36   A(6,13,39)            120.002          estimate D2E/DX2                !
 ! A37   A(14,13,39)           118.9823         estimate D2E/DX2                !
 ! A38   A(13,14,15)           124.9179         estimate D2E/DX2                !
 ! A39   A(14,15,16)           106.9776         estimate D2E/DX2                !
 ! A40   A(14,15,31)           106.774          estimate D2E/DX2                !
 ! A41   A(14,15,35)           112.135          estimate D2E/DX2                !
 ! A42   A(16,15,31)           114.7196         estimate D2E/DX2                !
 ! A43   A(16,15,35)           108.8808         estimate D2E/DX2                !
 ! A44   A(31,15,35)           107.4368         estimate D2E/DX2                !
 ! A45   A(15,16,17)           118.217          estimate D2E/DX2                !
 ! A46   A(15,16,28)           122.2501         estimate D2E/DX2                !
 ! A47   A(17,16,28)           119.4707         estimate D2E/DX2                !
 ! A48   A(16,17,18)           121.0223         estimate D2E/DX2                !
 ! A49   A(16,17,46)           120.1922         estimate D2E/DX2                !
 ! A50   A(18,17,46)           118.7765         estimate D2E/DX2                !
 ! A51   A(17,18,19)           120.666          estimate D2E/DX2                !
 ! A52   A(17,18,47)           118.0567         estimate D2E/DX2                !
 ! A53   A(19,18,47)           121.1885         estimate D2E/DX2                !
 ! A54   A(18,19,20)           119.2744         estimate D2E/DX2                !
 ! A55   A(18,19,25)           119.9845         estimate D2E/DX2                !
 ! A56   A(20,19,25)           120.7193         estimate D2E/DX2                !
 ! A57   A(19,20,21)           118.2463         estimate D2E/DX2                !
 ! A58   A(19,20,28)           119.4539         estimate D2E/DX2                !
 ! A59   A(21,20,28)           122.2187         estimate D2E/DX2                !
 ! A60   A(20,21,22)           120.8759         estimate D2E/DX2                !
 ! A61   A(20,21,48)           122.482          estimate D2E/DX2                !
 ! A62   A(22,21,48)           116.5836         estimate D2E/DX2                !
 ! A63   A(21,22,23)           120.9622         estimate D2E/DX2                !
 ! A64   A(21,22,49)           119.1409         estimate D2E/DX2                !
 ! A65   A(23,22,49)           119.8968         estimate D2E/DX2                !
 ! A66   A(22,23,24)           118.7996         estimate D2E/DX2                !
 ! A67   A(22,23,25)           119.8489         estimate D2E/DX2                !
 ! A68   A(24,23,25)           121.3505         estimate D2E/DX2                !
 ! A69   A(23,24,50)           121.9365         estimate D2E/DX2                !
 ! A70   A(19,25,23)           119.1458         estimate D2E/DX2                !
 ! A71   A(19,25,26)           118.077          estimate D2E/DX2                !
 ! A72   A(23,25,26)           122.7766         estimate D2E/DX2                !
 ! A73   A(25,26,27)           126.0617         estimate D2E/DX2                !
 ! A74   A(26,27,51)           109.1738         estimate D2E/DX2                !
 ! A75   A(26,27,52)           110.2976         estimate D2E/DX2                !
 ! A76   A(26,27,53)           110.5189         estimate D2E/DX2                !
 ! A77   A(51,27,52)           108.6203         estimate D2E/DX2                !
 ! A78   A(51,27,53)           107.0604         estimate D2E/DX2                !
 ! A79   A(52,27,53)           111.0782         estimate D2E/DX2                !
 ! A80   A(16,28,20)           119.3837         estimate D2E/DX2                !
 ! A81   A(16,28,29)           117.0668         estimate D2E/DX2                !
 ! A82   A(20,28,29)           123.4713         estimate D2E/DX2                !
 ! A83   A(28,29,30)           121.4806         estimate D2E/DX2                !
 ! A84   A(28,29,34)           120.065          estimate D2E/DX2                !
 ! A85   A(30,29,34)           118.1875         estimate D2E/DX2                !
 ! A86   A(15,31,32)           116.5086         estimate D2E/DX2                !
 ! A87   A(15,31,34)           121.9528         estimate D2E/DX2                !
 ! A88   A(32,31,34)           121.5343         estimate D2E/DX2                !
 ! A89   A(31,32,33)           125.3968         estimate D2E/DX2                !
 ! A90   A(32,33,54)           110.1266         estimate D2E/DX2                !
 ! A91   A(32,33,55)           109.3659         estimate D2E/DX2                !
 ! A92   A(32,33,56)           109.8495         estimate D2E/DX2                !
 ! A93   A(54,33,55)           108.7606         estimate D2E/DX2                !
 ! A94   A(54,33,56)           110.3068         estimate D2E/DX2                !
 ! A95   A(55,33,56)           108.3953         estimate D2E/DX2                !
 ! A96   A(29,34,31)           121.9933         estimate D2E/DX2                !
 ! A97   A(29,34,57)           117.1685         estimate D2E/DX2                !
 ! A98   A(31,34,57)           120.7924         estimate D2E/DX2                !
 ! A99   A(7,35,15)            119.8494         estimate D2E/DX2                !
 ! A100  A(7,35,36)            120.192          estimate D2E/DX2                !
 ! A101  A(15,35,36)           119.8013         estimate D2E/DX2                !
 ! A102  A(35,36,37)           121.6565         estimate D2E/DX2                !
 ! A103  A(35,36,58)           120.1249         estimate D2E/DX2                !
 ! A104  A(37,36,58)           118.2158         estimate D2E/DX2                !
 ! A105  A(9,37,36)            119.4265         estimate D2E/DX2                !
 ! A106  A(9,37,38)            120.5501         estimate D2E/DX2                !
 ! A107  A(36,37,38)           120.022          estimate D2E/DX2                !
 ! A108  A(3,39,13)            120.8278         estimate D2E/DX2                !
 ! A109  A(3,39,59)            119.6492         estimate D2E/DX2                !
 ! A110  A(13,39,59)           119.5172         estimate D2E/DX2                !
 ! D1    D(40,1,2,3)          -177.8289         estimate D2E/DX2                !
 ! D2    D(41,1,2,3)            62.8936         estimate D2E/DX2                !
 ! D3    D(42,1,2,3)           -58.57           estimate D2E/DX2                !
 ! D4    D(1,2,3,4)             -0.0001         estimate D2E/DX2                !
 ! D5    D(1,2,3,39)           179.8868         estimate D2E/DX2                !
 ! D6    D(2,3,4,5)            178.6837         estimate D2E/DX2                !
 ! D7    D(2,3,4,43)            -1.1991         estimate D2E/DX2                !
 ! D8    D(39,3,4,5)            -1.202          estimate D2E/DX2                !
 ! D9    D(39,3,4,43)          178.9152         estimate D2E/DX2                !
 ! D10   D(2,3,39,13)         -178.0738         estimate D2E/DX2                !
 ! D11   D(2,3,39,59)            1.0527         estimate D2E/DX2                !
 ! D12   D(4,3,39,13)            1.8166         estimate D2E/DX2                !
 ! D13   D(4,3,39,59)         -179.057          estimate D2E/DX2                !
 ! D14   D(3,4,5,6)             -0.6241         estimate D2E/DX2                !
 ! D15   D(3,4,5,12)           179.3584         estimate D2E/DX2                !
 ! D16   D(43,4,5,6)           179.26           estimate D2E/DX2                !
 ! D17   D(43,4,5,12)           -0.7575         estimate D2E/DX2                !
 ! D18   D(4,5,6,7)           -178.9024         estimate D2E/DX2                !
 ! D19   D(4,5,6,13)             1.8586         estimate D2E/DX2                !
 ! D20   D(12,5,6,7)             1.1149         estimate D2E/DX2                !
 ! D21   D(12,5,6,13)         -178.1241         estimate D2E/DX2                !
 ! D22   D(4,5,12,11)          179.8574         estimate D2E/DX2                !
 ! D23   D(4,5,12,45)           -0.2367         estimate D2E/DX2                !
 ! D24   D(6,5,12,11)           -0.1601         estimate D2E/DX2                !
 ! D25   D(6,5,12,45)          179.7458         estimate D2E/DX2                !
 ! D26   D(5,6,7,8)             -1.1601         estimate D2E/DX2                !
 ! D27   D(5,6,7,35)           177.8588         estimate D2E/DX2                !
 ! D28   D(13,6,7,8)           178.0754         estimate D2E/DX2                !
 ! D29   D(13,6,7,35)           -2.9056         estimate D2E/DX2                !
 ! D30   D(5,6,13,14)          177.5588         estimate D2E/DX2                !
 ! D31   D(5,6,13,39)           -1.2625         estimate D2E/DX2                !
 ! D32   D(7,6,13,14)           -1.6809         estimate D2E/DX2                !
 ! D33   D(7,6,13,39)          179.4978         estimate D2E/DX2                !
 ! D34   D(6,7,8,9)            179.865          estimate D2E/DX2                !
 ! D35   D(6,7,8,11)             0.2645         estimate D2E/DX2                !
 ! D36   D(35,7,8,9)             0.8552         estimate D2E/DX2                !
 ! D37   D(35,7,8,11)         -178.7453         estimate D2E/DX2                !
 ! D38   D(6,7,35,15)           -2.9634         estimate D2E/DX2                !
 ! D39   D(6,7,35,36)         -178.3966         estimate D2E/DX2                !
 ! D40   D(8,7,35,15)          176.0424         estimate D2E/DX2                !
 ! D41   D(8,7,35,36)            0.6092         estimate D2E/DX2                !
 ! D42   D(7,8,9,10)           179.3512         estimate D2E/DX2                !
 ! D43   D(7,8,9,37)            -1.0808         estimate D2E/DX2                !
 ! D44   D(11,8,9,10)           -1.0516         estimate D2E/DX2                !
 ! D45   D(11,8,9,37)          178.5164         estimate D2E/DX2                !
 ! D46   D(7,8,11,12)            0.6881         estimate D2E/DX2                !
 ! D47   D(7,8,11,44)         -179.8891         estimate D2E/DX2                !
 ! D48   D(9,8,11,12)         -178.9066         estimate D2E/DX2                !
 ! D49   D(9,8,11,44)            0.5162         estimate D2E/DX2                !
 ! D50   D(8,9,37,36)           -0.0612         estimate D2E/DX2                !
 ! D51   D(8,9,37,38)         -179.6437         estimate D2E/DX2                !
 ! D52   D(10,9,37,36)         179.5109         estimate D2E/DX2                !
 ! D53   D(10,9,37,38)          -0.0715         estimate D2E/DX2                !
 ! D54   D(8,11,12,5)           -0.7396         estimate D2E/DX2                !
 ! D55   D(8,11,12,45)         179.3531         estimate D2E/DX2                !
 ! D56   D(44,11,12,5)         179.8268         estimate D2E/DX2                !
 ! D57   D(44,11,12,45)         -0.0806         estimate D2E/DX2                !
 ! D58   D(6,13,14,15)          13.4841         estimate D2E/DX2                !
 ! D59   D(39,13,14,15)       -167.6827         estimate D2E/DX2                !
 ! D60   D(6,13,39,3)           -0.5824         estimate D2E/DX2                !
 ! D61   D(6,13,39,59)        -179.71           estimate D2E/DX2                !
 ! D62   D(14,13,39,3)        -179.4275         estimate D2E/DX2                !
 ! D63   D(14,13,39,59)          1.4449         estimate D2E/DX2                !
 ! D64   D(13,14,15,16)       -137.2795         estimate D2E/DX2                !
 ! D65   D(13,14,15,31)         99.4434         estimate D2E/DX2                !
 ! D66   D(13,14,15,35)        -17.9747         estimate D2E/DX2                !
 ! D67   D(14,15,16,17)         58.1384         estimate D2E/DX2                !
 ! D68   D(14,15,16,28)       -124.7482         estimate D2E/DX2                !
 ! D69   D(31,15,16,17)        176.3506         estimate D2E/DX2                !
 ! D70   D(31,15,16,28)         -6.536          estimate D2E/DX2                !
 ! D71   D(35,15,16,17)        -63.2459         estimate D2E/DX2                !
 ! D72   D(35,15,16,28)        113.8675         estimate D2E/DX2                !
 ! D73   D(14,15,31,32)        -62.2855         estimate D2E/DX2                !
 ! D74   D(14,15,31,34)        116.9716         estimate D2E/DX2                !
 ! D75   D(16,15,31,32)        179.3875         estimate D2E/DX2                !
 ! D76   D(16,15,31,34)         -1.3554         estimate D2E/DX2                !
 ! D77   D(35,15,31,32)         58.1894         estimate D2E/DX2                !
 ! D78   D(35,15,31,34)       -122.5534         estimate D2E/DX2                !
 ! D79   D(14,15,35,7)          12.3986         estimate D2E/DX2                !
 ! D80   D(14,15,35,36)       -172.1503         estimate D2E/DX2                !
 ! D81   D(16,15,35,7)         130.5805         estimate D2E/DX2                !
 ! D82   D(16,15,35,36)        -53.9683         estimate D2E/DX2                !
 ! D83   D(31,15,35,7)        -104.623          estimate D2E/DX2                !
 ! D84   D(31,15,35,36)         70.8281         estimate D2E/DX2                !
 ! D85   D(15,16,17,18)        174.4736         estimate D2E/DX2                !
 ! D86   D(15,16,17,46)         -4.4255         estimate D2E/DX2                !
 ! D87   D(28,16,17,18)         -2.7223         estimate D2E/DX2                !
 ! D88   D(28,16,17,46)        178.3785         estimate D2E/DX2                !
 ! D89   D(15,16,28,20)       -168.0198         estimate D2E/DX2                !
 ! D90   D(15,16,28,29)         15.0846         estimate D2E/DX2                !
 ! D91   D(17,16,28,20)          9.0586         estimate D2E/DX2                !
 ! D92   D(17,16,28,29)       -167.837          estimate D2E/DX2                !
 ! D93   D(16,17,18,19)         -3.4658         estimate D2E/DX2                !
 ! D94   D(16,17,18,47)        179.9197         estimate D2E/DX2                !
 ! D95   D(46,17,18,19)        175.4486         estimate D2E/DX2                !
 ! D96   D(46,17,18,47)         -1.1658         estimate D2E/DX2                !
 ! D97   D(17,18,19,20)          3.1311         estimate D2E/DX2                !
 ! D98   D(17,18,19,25)       -175.1793         estimate D2E/DX2                !
 ! D99   D(47,18,19,20)        179.6385         estimate D2E/DX2                !
 ! D100  D(47,18,19,25)          1.3281         estimate D2E/DX2                !
 ! D101  D(18,19,20,21)       -173.5387         estimate D2E/DX2                !
 ! D102  D(18,19,20,28)          3.2604         estimate D2E/DX2                !
 ! D103  D(25,19,20,21)          4.759          estimate D2E/DX2                !
 ! D104  D(25,19,20,28)       -178.442          estimate D2E/DX2                !
 ! D105  D(18,19,25,23)        176.7919         estimate D2E/DX2                !
 ! D106  D(18,19,25,26)         -2.9573         estimate D2E/DX2                !
 ! D107  D(20,19,25,23)         -1.4937         estimate D2E/DX2                !
 ! D108  D(20,19,25,26)        178.7571         estimate D2E/DX2                !
 ! D109  D(19,20,21,22)         -4.7688         estimate D2E/DX2                !
 ! D110  D(19,20,21,48)        172.3523         estimate D2E/DX2                !
 ! D111  D(28,20,21,22)        178.5258         estimate D2E/DX2                !
 ! D112  D(28,20,21,48)         -4.353          estimate D2E/DX2                !
 ! D113  D(19,20,28,16)         -9.3305         estimate D2E/DX2                !
 ! D114  D(19,20,28,29)        167.3553         estimate D2E/DX2                !
 ! D115  D(21,20,28,16)        167.3363         estimate D2E/DX2                !
 ! D116  D(21,20,28,29)        -15.9778         estimate D2E/DX2                !
 ! D117  D(20,21,22,23)          1.4977         estimate D2E/DX2                !
 ! D118  D(20,21,22,49)       -178.5899         estimate D2E/DX2                !
 ! D119  D(48,21,22,23)       -175.7869         estimate D2E/DX2                !
 ! D120  D(48,21,22,49)          4.1255         estimate D2E/DX2                !
 ! D121  D(21,22,23,24)       -177.7497         estimate D2E/DX2                !
 ! D122  D(21,22,23,25)          1.9061         estimate D2E/DX2                !
 ! D123  D(49,22,23,24)          2.3386         estimate D2E/DX2                !
 ! D124  D(49,22,23,25)       -178.0056         estimate D2E/DX2                !
 ! D125  D(22,23,24,50)         -0.5796         estimate D2E/DX2                !
 ! D126  D(25,23,24,50)        179.7699         estimate D2E/DX2                !
 ! D127  D(22,23,25,19)         -1.8735         estimate D2E/DX2                !
 ! D128  D(22,23,25,26)        177.8633         estimate D2E/DX2                !
 ! D129  D(24,23,25,19)        177.7733         estimate D2E/DX2                !
 ! D130  D(24,23,25,26)         -2.4899         estimate D2E/DX2                !
 ! D131  D(19,25,26,27)        179.9999         estimate D2E/DX2                !
 ! D132  D(23,25,26,27)          0.2605         estimate D2E/DX2                !
 ! D133  D(25,26,27,51)       -171.5287         estimate D2E/DX2                !
 ! D134  D(25,26,27,52)        -52.2513         estimate D2E/DX2                !
 ! D135  D(25,26,27,53)         70.9685         estimate D2E/DX2                !
 ! D136  D(16,28,29,30)        157.5283         estimate D2E/DX2                !
 ! D137  D(16,28,29,34)        -16.4291         estimate D2E/DX2                !
 ! D138  D(20,28,29,30)        -19.2288         estimate D2E/DX2                !
 ! D139  D(20,28,29,34)        166.8139         estimate D2E/DX2                !
 ! D140  D(28,29,34,31)          9.2869         estimate D2E/DX2                !
 ! D141  D(28,29,34,57)       -173.1563         estimate D2E/DX2                !
 ! D142  D(30,29,34,31)       -164.8672         estimate D2E/DX2                !
 ! D143  D(30,29,34,57)         12.6897         estimate D2E/DX2                !
 ! D144  D(15,31,32,33)        150.0002         estimate D2E/DX2                !
 ! D145  D(34,31,32,33)        -29.2602         estimate D2E/DX2                !
 ! D146  D(15,31,34,29)         -0.2377         estimate D2E/DX2                !
 ! D147  D(15,31,34,57)       -177.7073         estimate D2E/DX2                !
 ! D148  D(32,31,34,29)        178.9824         estimate D2E/DX2                !
 ! D149  D(32,31,34,57)          1.5127         estimate D2E/DX2                !
 ! D150  D(31,32,33,54)        -60.7978         estimate D2E/DX2                !
 ! D151  D(31,32,33,55)        179.7376         estimate D2E/DX2                !
 ! D152  D(31,32,33,56)         60.888          estimate D2E/DX2                !
 ! D153  D(7,35,36,37)          -1.8172         estimate D2E/DX2                !
 ! D154  D(7,35,36,58)         177.5666         estimate D2E/DX2                !
 ! D155  D(15,35,36,37)       -177.2526         estimate D2E/DX2                !
 ! D156  D(15,35,36,58)          2.1313         estimate D2E/DX2                !
 ! D157  D(35,36,37,9)           1.554          estimate D2E/DX2                !
 ! D158  D(35,36,37,38)       -178.8613         estimate D2E/DX2                !
 ! D159  D(58,36,37,9)        -177.8412         estimate D2E/DX2                !
 ! D160  D(58,36,37,38)          1.7435         estimate D2E/DX2                !
 --------------------------------------------------------------------------------
 Trust Radius=3.00D-01 FncErr=1.00D-07 GrdErr=1.00D-06 EigMax=2.50D+02 EigMin=1.00D-04
 Number of steps in this run=    345 maximum allowed number of steps=    354.
 GradGradGradGradGradGradGradGradGradGradGradGradGradGradGradGradGradGrad

 Stoichiometry    C31H20O8
 Framework group  C1[X(C31H20O8)]
 Deg. of freedom   171
 Full point group                 C1      NOp   1
 Largest Abelian subgroup         C1      NOp   1
 Largest concise Abelian subgroup C1      NOp   1
                         Standard orientation:                         
 ---------------------------------------------------------------------
 Center     Atomic      Atomic             Coordinates (Angstroms)
 Number     Number       Type             X           Y           Z
 ---------------------------------------------------------------------
      1          6           0       -6.572272   -3.633982   -1.459735
      2          8           0       -5.254475   -3.538405   -0.936984
      3          6           0       -4.521148   -2.345665   -0.843455
      4          6           0       -5.038510   -1.106842   -1.269753
      5          6           0       -4.276761    0.063027   -1.130166
      6          6           0       -2.988718   -0.001042   -0.546462
      7          6           0       -2.228406    1.168403   -0.381691
      8          6           0       -2.751139    2.405950   -0.826572
      9          6           0       -1.951153    3.634373   -0.649487
     10          8           0       -2.378620    4.754644   -1.044413
     11          6           0       -4.022685    2.456763   -1.421782
     12          6           0       -4.782926    1.295798   -1.565541
     13          6           0       -2.468024   -1.241144   -0.147575
     14          8           0       -1.178649   -1.343528    0.385512
     15          6           0       -0.384570   -0.235435    0.833011
     16          6           0        1.039225   -0.473180    0.327228
     17          6           0        1.237290   -0.614486   -1.053653
     18          6           0        2.515866   -0.718375   -1.586549
     19          6           0        3.645407   -0.611892   -0.761906
     20          6           0        3.470028   -0.462392    0.643459
     21          6           0        4.610003   -0.218691    1.435767
     22          6           0        5.883592   -0.224259    0.875342
     23          6           0        6.065837   -0.440533   -0.492370
     24          8           0        7.366812   -0.484107   -0.999340
     25          6           0        4.942178   -0.617583   -1.332965
     26          8           0        5.052594   -0.796079   -2.728306
     27          6           0        6.267216   -0.829763   -3.477699
     28          6           0        2.152671   -0.493974    1.194051
     29          6           0        1.875621   -0.619800    2.645611
     30          8           0        2.745678   -1.058611    3.446705
     31          6           0       -0.520809   -0.180756    2.345471
     32          8           0       -1.813498    0.049761    2.851775
     33          6           0       -2.308669   -0.428903    4.098222
     34          6           0        0.531508   -0.357839    3.160676
     35          6           0       -0.890865    1.097879    0.278517
     36          6           0       -0.168140    2.221745    0.469730
     37          6           0       -0.644240    3.533160    0.007016
     38          8           0        0.064588    4.558241    0.182554
     39          6           0       -3.230739   -2.401961   -0.302940
     40          1           0       -6.921899   -4.684393   -1.377418
     41          1           0       -6.581078   -3.339681   -2.526198
     42          1           0       -7.258721   -2.983874   -0.880776
     43          1           0       -6.028355   -1.046828   -1.706642
     44          1           0       -4.434798    3.397689   -1.768811
     45          1           0       -5.767413    1.361162   -2.019067
     46          1           0        0.388476   -0.626541   -1.727687
     47          1           0        2.613229   -0.827278   -2.660345
     48          1           0        4.545143    0.024799    2.486448
     49          1           0        6.741902   -0.056360    1.514517
     50          1           0        8.177811   -0.355062   -0.405992
     51          1           0        6.027520   -0.829923   -4.559398
     52          1           0        6.885533    0.066876   -3.251013
     53          1           0        6.831234   -1.770311   -3.266959
     54          1           0       -2.289143   -1.536148    4.116186
     55          1           0       -3.355584   -0.088346    4.233310
     56          1           0       -1.698297   -0.020102    4.927459
     57          1           0        0.407056   -0.351687    4.233150
     58          1           0        0.784295    2.174833    0.983979
     59          1           0       -2.822367   -3.355762    0.012424
 ---------------------------------------------------------------------
 Rotational constants (GHZ):           0.1434681           0.0572865           0.0546767
 Standard basis: 6-31G(d) (6D, 7F)
 There are   625 symmetry adapted cartesian basis functions of A   symmetry.
 There are   625 symmetry adapted basis functions of A   symmetry.
   625 basis functions,  1172 primitive gaussians,   625 cartesian basis functions
   135 alpha electrons      135 beta electrons
       nuclear repulsion energy      4224.7507714389 Hartrees.
 NAtoms=   59 NActive=   59 NUniq=   59 SFac= 1.00D+00 NAtFMM=   60 NAOKFM=F Big=F
 Integral buffers will be    131072 words long.
 Raffenetti 2 integral format.
 Two-electron integral symmetry is turned on.
 One-electron integrals computed using PRISM.
 NBasis=   625 RedAO= T EigKep=  1.79D-04  NBF=   625
 NBsUse=   625 1.00D-06 EigRej= -1.00D+00 NBFU=   625
 ExpMin= 1.61D-01 ExpMax= 5.48D+03 ExpMxC= 8.25D+02 IAcc=3 IRadAn=         5 AccDes= 0.00D+00
 Harris functional with IExCor=  402 and IRadAn=       5 diagonalized for initial guess.
 HarFok:  IExCor=  402 AccDes= 0.00D+00 IRadAn=         5 IDoV= 1 UseB2=F ITyADJ=14
 ICtDFT=  3500011 ScaDFX=  1.000000  1.000000  1.000000  1.000000
 FoFCou: FMM=F IPFlag=           0 FMFlag=      100000 FMFlg1=           0
         NFxFlg=           0 DoJE=T BraDBF=F KetDBF=T FulRan=T
         wScrn=  0.000000 ICntrl=       500 IOpCl=  0 I1Cent=   200000004 NGrid=           0
         NMat0=    1 NMatS0=      1 NMatT0=    0 NMatD0=    1 NMtDS0=    0 NMtDT0=    0
 Petite list used in FoFCou.
 Requested convergence on RMS density matrix=1.00D-08 within 128 cycles.
 Requested convergence on MAX density matrix=1.00D-06.
 Requested convergence on             energy=1.00D-06.
 No special actions if energy rises.
 Integral accuracy reduced to 1.0D-05 until final iterations.
 EnCoef did     3 forward-backward iterations
 Initial convergence to 1.0D-05 achieved.  Increase integral accuracy.
 SCF Done:  E(RB3LYP) =  -1795.02497910     A.U. after   18 cycles
            NFock= 18  Conv=0.91D-08     -V/T= 2.0097

 **********************************************************************

            Population analysis using the SCF density.

 **********************************************************************

 Orbital symmetries:
       Occupied  (A) (A) (A) (A) (A) (A) (A) (A) (A) (A) (A) (A)
                 (A) (A) (A) (A) (A) (A) (A) (A) (A) (A) (A) (A)
                 (A) (A) (A) (A) (A) (A) (A) (A) (A) (A) (A) (A)
                 (A) (A) (A) (A) (A) (A) (A) (A) (A) (A) (A) (A)
                 (A) (A) (A) (A) (A) (A) (A) (A) (A) (A) (A) (A)
                 (A) (A) (A) (A) (A) (A) (A) (A) (A) (A) (A) (A)
                 (A) (A) (A) (A) (A) (A) (A) (A) (A) (A) (A) (A)
                 (A) (A) (A) (A) (A) (A) (A) (A) (A) (A) (A) (A)
                 (A) (A) (A) (A) (A) (A) (A) (A) (A) (A) (A) (A)
                 (A) (A) (A) (A) (A) (A) (A) (A) (A) (A) (A) (A)
                 (A) (A) (A) (A) (A) (A) (A) (A) (A) (A) (A) (A)
                 (A) (A) (A)
       Virtual   (A) (A) (A) (A) (A) (A) (A) (A) (A) (A) (A) (A)
                 (A) (A) (A) (A) (A) (A) (A) (A) (A) (A) (A) (A)
                 (A) (A) (A) (A) (A) (A) (A) (A) (A) (A) (A) (A)
                 (A) (A) (A) (A) (A) (A) (A) (A) (A) (A) (A) (A)
                 (A) (A) (A) (A) (A) (A) (A) (A) (A) (A) (A) (A)
                 (A) (A) (A) (A) (A) (A) (A) (A) (A) (A) (A) (A)
                 (A) (A) (A) (A) (A) (A) (A) (A) (A) (A) (A) (A)
                 (A) (A) (A) (A) (A) (A) (A) (A) (A) (A) (A) (A)
                 (A) (A) (A) (A) (A) (A) (A) (A) (A) (A) (A) (A)
                 (A) (A) (A) (A) (A) (A) (A) (A) (A) (A) (A) (A)
                 (A) (A) (A) (A) (A) (A) (A) (A) (A) (A) (A) (A)
                 (A) (A) (A) (A) (A) (A) (A) (A) (A) (A) (A) (A)
                 (A) (A) (A) (A) (A) (A) (A) (A) (A) (A) (A) (A)
                 (A) (A) (A) (A) (A) (A) (A) (A) (A) (A) (A) (A)
                 (A) (A) (A) (A) (A) (A) (A) (A) (A) (A) (A) (A)
                 (A) (A) (A) (A) (A) (A) (A) (A) (A) (A) (A) (A)
                 (A) (A) (A) (A) (A) (A) (A) (A) (A) (A) (A) (A)
                 (A) (A) (A) (A) (A) (A) (A) (A) (A) (A) (A) (A)
                 (A) (A) (A) (A) (A) (A) (A) (A) (A) (A) (A) (A)
                 (A) (A) (A) (A) (A) (A) (A) (A) (A) (A) (A) (A)
                 (A) (A) (A) (A) (A) (A) (A) (A) (A) (A) (A) (A)
                 (A) (A) (A) (A) (A) (A) (A) (A) (A) (A) (A) (A)
                 (A) (A) (A) (A) (A) (A) (A) (A) (A) (A) (A) (A)
                 (A) (A) (A) (A) (A) (A) (A) (A) (A) (A) (A) (A)
                 (A) (A) (A) (A) (A) (A) (A) (A) (A) (A) (A) (A)
                 (A) (A) (A) (A) (A) (A) (A) (A) (A) (A) (A) (A)
                 (A) (A) (A) (A) (A) (A) (A) (A) (A) (A) (A) (A)
                 (A) (A) (A) (A) (A) (A) (A) (A) (A) (A) (A) (A)
                 (A) (A) (A) (A) (A) (A) (A) (A) (A) (A) (A) (A)
                 (A) (A) (A) (A) (A) (A) (A) (A) (A) (A) (A) (A)
                 (A) (A) (A) (A) (A) (A) (A) (A) (A) (A) (A) (A)
                 (A) (A) (A) (A) (A) (A) (A) (A) (A) (A) (A) (A)
                 (A) (A) (A) (A) (A) (A) (A) (A) (A) (A) (A) (A)
                 (A) (A) (A) (A) (A) (A) (A) (A) (A) (A) (A) (A)
                 (A) (A) (A) (A) (A) (A) (A) (A) (A) (A) (A) (A)
                 (A) (A) (A) (A) (A) (A) (A) (A) (A) (A) (A) (A)
                 (A) (A) (A) (A) (A) (A) (A) (A) (A) (A) (A) (A)
                 (A) (A) (A) (A) (A) (A) (A) (A) (A) (A) (A) (A)
                 (A) (A) (A) (A) (A) (A) (A) (A) (A) (A) (A) (A)
                 (A) (A) (A) (A) (A) (A) (A) (A) (A) (A) (A) (A)
                 (A) (A) (A) (A) (A) (A) (A) (A) (A) (A)
 The electronic state is 1-A.
 Alpha  occ. eigenvalues --  -19.19999 -19.19435 -19.19095 -19.18211 -19.17240
 Alpha  occ. eigenvalues --  -19.14910 -19.14857 -19.12577 -10.30180 -10.28312
 Alpha  occ. eigenvalues --  -10.27953 -10.27913 -10.27877 -10.27717 -10.27521
 Alpha  occ. eigenvalues --  -10.26077 -10.26076 -10.25992 -10.25989 -10.24415
 Alpha  occ. eigenvalues --  -10.23791 -10.23448 -10.22232 -10.22076 -10.21717
 Alpha  occ. eigenvalues --  -10.21443 -10.21287 -10.20999 -10.20971 -10.20877
 Alpha  occ. eigenvalues --  -10.20860 -10.20823 -10.20763 -10.20198 -10.20084
 Alpha  occ. eigenvalues --  -10.20067 -10.19816 -10.19674 -10.18764  -1.08549
 Alpha  occ. eigenvalues --   -1.06314  -1.06160  -1.05058  -1.03903  -1.03188
 Alpha  occ. eigenvalues --   -1.01014  -1.00709  -0.90267  -0.89253  -0.87251
 Alpha  occ. eigenvalues --   -0.84414  -0.82545  -0.81637  -0.79177  -0.78377
 Alpha  occ. eigenvalues --   -0.78158  -0.75926  -0.74514  -0.74025  -0.73421
 Alpha  occ. eigenvalues --   -0.72058  -0.70777  -0.68744  -0.68499  -0.65138
 Alpha  occ. eigenvalues --   -0.64878  -0.63594  -0.63092  -0.62666  -0.61598
 Alpha  occ. eigenvalues --   -0.59758  -0.56971  -0.56527  -0.56241  -0.54766
 Alpha  occ. eigenvalues --   -0.53585  -0.53442  -0.52742  -0.52203  -0.51571
 Alpha  occ. eigenvalues --   -0.50769  -0.49968  -0.49243  -0.48491  -0.48029
 Alpha  occ. eigenvalues --   -0.47714  -0.47590  -0.47141  -0.46801  -0.45865
 Alpha  occ. eigenvalues --   -0.45745  -0.45078  -0.44572  -0.44188  -0.44006
 Alpha  occ. eigenvalues --   -0.43250  -0.43017  -0.42716  -0.42366  -0.41901
 Alpha  occ. eigenvalues --   -0.41835  -0.41458  -0.41089  -0.40839  -0.40538
 Alpha  occ. eigenvalues --   -0.39591  -0.39385  -0.38969  -0.38296  -0.37791
 Alpha  occ. eigenvalues --   -0.37312  -0.36999  -0.36447  -0.35849  -0.35649
 Alpha  occ. eigenvalues --   -0.35353  -0.35074  -0.34291  -0.33354  -0.33073
 Alpha  occ. eigenvalues --   -0.32289  -0.32083  -0.30935  -0.30709  -0.29563
 Alpha  occ. eigenvalues --   -0.27425  -0.26598  -0.26115  -0.25530  -0.24864
 Alpha  occ. eigenvalues --   -0.24793  -0.24264  -0.24054  -0.21364  -0.19619
 Alpha virt. eigenvalues --   -0.12502  -0.07841  -0.05437  -0.04052  -0.02181
 Alpha virt. eigenvalues --   -0.01445  -0.00130   0.02395   0.03540   0.03774
 Alpha virt. eigenvalues --    0.06677   0.06830   0.07475   0.08013   0.08495
 Alpha virt. eigenvalues --    0.08779   0.08929   0.09276   0.10757   0.11722
 Alpha virt. eigenvalues --    0.12236   0.12961   0.13090   0.13303   0.13470
 Alpha virt. eigenvalues --    0.13980   0.14007   0.14466   0.15029   0.15304
 Alpha virt. eigenvalues --    0.15528   0.16024   0.17054   0.17606   0.17949
 Alpha virt. eigenvalues --    0.18167   0.19173   0.19459   0.19781   0.20381
 Alpha virt. eigenvalues --    0.20800   0.21596   0.21957   0.22327   0.23299
 Alpha virt. eigenvalues --    0.23775   0.24128   0.24955   0.25320   0.25822
 Alpha virt. eigenvalues --    0.26537   0.26828   0.29061   0.29410   0.30417
 Alpha virt. eigenvalues --    0.31217   0.32060   0.32711   0.33146   0.34007
 Alpha virt. eigenvalues --    0.34671   0.35142   0.36352   0.36754   0.37605
 Alpha virt. eigenvalues --    0.38306   0.39139   0.39899   0.42828   0.44669
 Alpha virt. eigenvalues --    0.44927   0.45165   0.46037   0.46419   0.46781
 Alpha virt. eigenvalues --    0.47432   0.48203   0.48781   0.49137   0.49350
 Alpha virt. eigenvalues --    0.49920   0.49958   0.50382   0.51040   0.51496
 Alpha virt. eigenvalues --    0.52245   0.52421   0.52591   0.52780   0.53170
 Alpha virt. eigenvalues --    0.53814   0.53954   0.54131   0.54269   0.54537
 Alpha virt. eigenvalues --    0.54787   0.55494   0.56098   0.56299   0.56798
 Alpha virt. eigenvalues --    0.57031   0.57262   0.57986   0.58069   0.58376
 Alpha virt. eigenvalues --    0.58560   0.59157   0.59710   0.60083   0.60526
 Alpha virt. eigenvalues --    0.60632   0.61613   0.61979   0.62280   0.62848
 Alpha virt. eigenvalues --    0.63098   0.63304   0.63826   0.64145   0.64178
 Alpha virt. eigenvalues --    0.65164   0.65591   0.65983   0.66658   0.67338
 Alpha virt. eigenvalues --    0.67478   0.68177   0.68949   0.69747   0.70554
 Alpha virt. eigenvalues --    0.71735   0.72684   0.72931   0.73118   0.73543
 Alpha virt. eigenvalues --    0.74490   0.75232   0.76536   0.77601   0.77660
 Alpha virt. eigenvalues --    0.78783   0.79682   0.80340   0.80494   0.81085
 Alpha virt. eigenvalues --    0.81531   0.81967   0.82394   0.82597   0.83114
 Alpha virt. eigenvalues --    0.83173   0.83591   0.83660   0.83999   0.84271
 Alpha virt. eigenvalues --    0.84465   0.85035   0.85379   0.85687   0.85969
 Alpha virt. eigenvalues --    0.86784   0.87617   0.88451   0.88638   0.89059
 Alpha virt. eigenvalues --    0.89388   0.89961   0.91010   0.91184   0.91424
 Alpha virt. eigenvalues --    0.92105   0.92531   0.93106   0.93431   0.93860
 Alpha virt. eigenvalues --    0.94656   0.95580   0.95633   0.96536   0.97042
 Alpha virt. eigenvalues --    0.98167   0.98469   0.98569   0.99305   0.99887
 Alpha virt. eigenvalues --    1.00315   1.01590   1.02460   1.03408   1.03874
 Alpha virt. eigenvalues --    1.04349   1.05056   1.05983   1.06465   1.07143
 Alpha virt. eigenvalues --    1.08094   1.08433   1.08679   1.09235   1.09776
 Alpha virt. eigenvalues --    1.10004   1.11278   1.11562   1.12687   1.12776
 Alpha virt. eigenvalues --    1.14127   1.14675   1.15739   1.16621   1.17113
 Alpha virt. eigenvalues --    1.17936   1.18442   1.19151   1.20712   1.21302
 Alpha virt. eigenvalues --    1.21782   1.22172   1.22928   1.23953   1.24164
 Alpha virt. eigenvalues --    1.24800   1.25955   1.26816   1.27094   1.28064
 Alpha virt. eigenvalues --    1.28936   1.29143   1.30543   1.32298   1.32936
 Alpha virt. eigenvalues --    1.33640   1.34745   1.34958   1.35849   1.36280
 Alpha virt. eigenvalues --    1.36642   1.37246   1.37306   1.38175   1.38812
 Alpha virt. eigenvalues --    1.39548   1.40183   1.41272   1.41920   1.42890
 Alpha virt. eigenvalues --    1.43904   1.44003   1.44259   1.45019   1.45923
 Alpha virt. eigenvalues --    1.46186   1.47112   1.47923   1.48848   1.49575
 Alpha virt. eigenvalues --    1.50255   1.51586   1.52245   1.52691   1.53106
 Alpha virt. eigenvalues --    1.53871   1.55247   1.55741   1.56775   1.57815
 Alpha virt. eigenvalues --    1.58660   1.59810   1.62927   1.64095   1.65109
 Alpha virt. eigenvalues --    1.67080   1.67643   1.68000   1.70087   1.70939
 Alpha virt. eigenvalues --    1.71379   1.72331   1.72633   1.73564   1.74219
 Alpha virt. eigenvalues --    1.74373   1.74636   1.75156   1.75597   1.75802
 Alpha virt. eigenvalues --    1.77313   1.77386   1.77880   1.78247   1.78607
 Alpha virt. eigenvalues --    1.79353   1.80248   1.80788   1.81207   1.82017
 Alpha virt. eigenvalues --    1.82665   1.84514   1.84754   1.85013   1.85484
 Alpha virt. eigenvalues --    1.85833   1.86362   1.86626   1.87337   1.88192
 Alpha virt. eigenvalues --    1.88923   1.89144   1.90201   1.90526   1.91211
 Alpha virt. eigenvalues --    1.91331   1.92341   1.92769   1.92811   1.94405
 Alpha virt. eigenvalues --    1.94442   1.94980   1.96332   1.96777   1.96991
 Alpha virt. eigenvalues --    1.97665   1.98732   1.99043   1.99889   2.00685
 Alpha virt. eigenvalues --    2.00946   2.01446   2.02275   2.03351   2.03878
 Alpha virt. eigenvalues --    2.04559   2.05676   2.06230   2.06720   2.07055
 Alpha virt. eigenvalues --    2.07925   2.08853   2.09659   2.10262   2.11107
 Alpha virt. eigenvalues --    2.11379   2.11871   2.12913   2.13233   2.14002
 Alpha virt. eigenvalues --    2.14509   2.16232   2.16662   2.17515   2.18709
 Alpha virt. eigenvalues --    2.19146   2.20175   2.20859   2.21253   2.22852
 Alpha virt. eigenvalues --    2.23359   2.24156   2.24637   2.25554   2.26265
 Alpha virt. eigenvalues --    2.26450   2.26956   2.27294   2.28482   2.28781
 Alpha virt. eigenvalues --    2.29197   2.30665   2.31565   2.31865   2.33086
 Alpha virt. eigenvalues --    2.33638   2.33777   2.34628   2.35277   2.35836
 Alpha virt. eigenvalues --    2.36395   2.37096   2.37783   2.38132   2.39712
 Alpha virt. eigenvalues --    2.41332   2.41891   2.42320   2.44798   2.45719
 Alpha virt. eigenvalues --    2.47260   2.47914   2.48302   2.49469   2.50837
 Alpha virt. eigenvalues --    2.50980   2.52792   2.54904   2.56158   2.56779
 Alpha virt. eigenvalues --    2.57271   2.57790   2.58526   2.61283   2.61897
 Alpha virt. eigenvalues --    2.62324   2.63719   2.64433   2.66180   2.66775
 Alpha virt. eigenvalues --    2.67077   2.69009   2.69271   2.69610   2.71235
 Alpha virt. eigenvalues --    2.71357   2.73386   2.74145   2.74956   2.75617
 Alpha virt. eigenvalues --    2.77794   2.79598   2.81235   2.81937   2.82922
 Alpha virt. eigenvalues --    2.84053   2.85240   2.85990   2.86531   2.86954
 Alpha virt. eigenvalues --    2.89087   2.89722   2.90588   2.91958   2.92582
 Alpha virt. eigenvalues --    2.95045   2.96740   2.97636   3.01352   3.02404
 Alpha virt. eigenvalues --    3.03354   3.05136   3.08012   3.09831   3.09968
 Alpha virt. eigenvalues --    3.11501   3.15785   3.18807   3.21131   3.22746
 Alpha virt. eigenvalues --    3.27030   3.29770   3.42640   3.47577   3.48684
 Alpha virt. eigenvalues --    3.52025   3.83292   3.95512   3.97754   4.04373
 Alpha virt. eigenvalues --    4.05070   4.07960   4.08142   4.08229   4.09393
 Alpha virt. eigenvalues --    4.09550   4.10145   4.12206   4.13553   4.15522
 Alpha virt. eigenvalues --    4.16162   4.18896   4.20474   4.23005   4.23431
 Alpha virt. eigenvalues --    4.25698   4.29534   4.31691   4.32199   4.35761
 Alpha virt. eigenvalues --    4.36665   4.38470   4.40230   4.42284   4.46076
 Alpha virt. eigenvalues --    4.49584   4.52317   4.55997   4.62920   4.66234
 Alpha virt. eigenvalues --    4.79897   4.86948   4.94841   5.00410   5.04612
          Condensed to atoms (all electrons):
 Mulliken charges:
               1
     1  C   -0.203721
     2  O   -0.529856
     3  C    0.405393
     4  C   -0.305039
     5  C    0.186755
     6  C    0.023499
     7  C    0.035523
     8  C    0.042546
     9  C    0.327446
    10  O   -0.456952
    11  C   -0.180701
    12  C   -0.208434
    13  C    0.338728
    14  O   -0.595902
    15  C    0.105269
    16  C    0.103117
    17  C   -0.184654
    18  C   -0.175573
    19  C    0.085906
    20  C    0.090977
    21  C   -0.182959
    22  C   -0.200128
    23  C    0.351774
    24  O   -0.692267
    25  C    0.269790
    26  O   -0.548005
    27  C   -0.183490
    28  C   -0.022404
    29  C    0.380022
    30  O   -0.513280
    31  C    0.445839
    32  O   -0.527084
    33  C   -0.206366
    34  C   -0.258482
    35  C    0.148596
    36  C   -0.285655
    37  C    0.417266
    38  O   -0.452450
    39  C   -0.243343
    40  H    0.176828
    41  H    0.154938
    42  H    0.152974
    43  H    0.134702
    44  H    0.168575
    45  H    0.142345
    46  H    0.142919
    47  H    0.163690
    48  H    0.163781
    49  H    0.128872
    50  H    0.416398
    51  H    0.154110
    52  H    0.163596
    53  H    0.151330
    54  H    0.165351
    55  H    0.178889
    56  H    0.157793
    57  H    0.155454
    58  H    0.166597
    59  H    0.159158
 Sum of Mulliken charges =  -0.00000
 Mulliken charges with hydrogens summed into heavy atoms:
               1
     1  C    0.281019
     2  O   -0.529856
     3  C    0.405393
     4  C   -0.170337
     5  C    0.186755
     6  C    0.023499
     7  C    0.035523
     8  C    0.042546
     9  C    0.327446
    10  O   -0.456952
    11  C   -0.012126
    12  C   -0.066088
    13  C    0.338728
    14  O   -0.595902
    15  C    0.105269
    16  C    0.103117
    17  C   -0.041735
    18  C   -0.011884
    19  C    0.085906
    20  C    0.090977
    21  C   -0.019178
    22  C   -0.071256
    23  C    0.351774
    24  O   -0.275869
    25  C    0.269790
    26  O   -0.548005
    27  C    0.285545
    28  C   -0.022404
    29  C    0.380022
    30  O   -0.513280
    31  C    0.445839
    32  O   -0.527084
    33  C    0.295667
    34  C   -0.103028
    35  C    0.148596
    36  C   -0.119059
    37  C    0.417266
    38  O   -0.452450
    39  C   -0.084185
 Electronic spatial extent (au):  <R**2>=          21090.5519
 Charge=             -0.0000 electrons
 Dipole moment (field-independent basis, Debye):
    X=             -2.1790    Y=             -5.2659    Z=             -0.7619  Tot=              5.7496
 Quadrupole moment (field-independent basis, Debye-Ang):
   XX=           -145.6164   YY=           -255.1913   ZZ=           -206.6505
   XY=             18.1589   XZ=             -5.6135   YZ=              8.9526
 Traceless Quadrupole moment (field-independent basis, Debye-Ang):
   XX=             56.8697   YY=            -52.7052   ZZ=             -4.1645
   XY=             18.1589   XZ=             -5.6135   YZ=              8.9526
 Octapole moment (field-independent basis, Debye-Ang**2):
  XXX=            163.0346  YYY=           -215.9827  ZZZ=              5.9867  XYY=            -13.1174
  XXY=            -78.1235  XXZ=            -83.0776  XZZ=            -44.3001  YZZ=              1.6687
  YYZ=              2.3725  XYZ=              0.9156
 Hexadecapole moment (field-independent basis, Debye-Ang**3):
 XXXX=         -13015.4166 YYYY=          -5906.4840 ZZZZ=          -3870.5880 XXXY=            639.9156
 XXXZ=            365.1099 YYYX=            395.9949 YYYZ=            144.0094 ZZZX=           -511.4575
 ZZZY=             73.3199 XXYY=          -3703.6715 XXZZ=          -3459.0607 YYZZ=          -1518.6330
 XXYZ=            228.3773 YYXZ=            -13.4427 ZZXY=             98.3732
 N-N= 4.224750771439D+03 E-N=-1.263087600354D+04  KE= 1.777849117235D+03
 Calling FoFJK, ICntrl=      2127 FMM=F ISym2X=0 I1Cent= 0 IOpClX= 0 NMat=1 NMatS=1 NMatT=0.
 ***** Axes restored to original set *****
 -------------------------------------------------------------------
 Center     Atomic                   Forces (Hartrees/Bohr)
 Number     Number              X              Y              Z
 -------------------------------------------------------------------
      1        6           0.005360901    0.001849449   -0.013778147
      2        8          -0.030337716   -0.009382024   -0.010228532
      3        6           0.045099854    0.016149042    0.002326202
      4        6          -0.004616772   -0.003542825    0.025354309
      5        6           0.011079451    0.003142460    0.013750182
      6        6          -0.009676796   -0.001936335   -0.010613573
      7        6          -0.009944604   -0.003517749   -0.015838868
      8        6          -0.016675531   -0.006581254    0.004643109
      9        6           0.061695131    0.027808782   -0.034760889
     10        8          -0.026081251   -0.013051568    0.038856791
     11        6           0.015730295    0.004694508    0.017898785
     12        6          -0.005254248    0.000083347   -0.031886584
     13        6          -0.013559427   -0.009795566    0.013698195
     14        8           0.021344766    0.012356797    0.023330271
     15        6           0.020256828    0.000686580   -0.004827503
     16        6          -0.013426127   -0.017556111   -0.000751152
     17        6          -0.009019570    0.011788022   -0.002357665
     18        6           0.026157387    0.000527390    0.003897343
     19        6          -0.005275138    0.010984524    0.000010755
     20        6          -0.004507778   -0.011455731   -0.001652016
     21        6          -0.020894088   -0.001289660   -0.005704541
     22        6           0.022393120   -0.009435956    0.003609599
     23        6          -0.021186130    0.003053955   -0.001566259
     24        8          -0.011785375    0.006066413   -0.002376116
     25        6          -0.046472337    0.027287560   -0.007628179
     26        8           0.022177931   -0.020341094    0.002646408
     27        6          -0.016129128   -0.005875948   -0.003445551
     28        6           0.026975580    0.008910799   -0.001462806
     29        6          -0.038408806   -0.028453913    0.016232081
     30        8           0.028396956    0.020318849   -0.014193074
     31        6           0.017434095   -0.039541835    0.007759685
     32        8          -0.007598631    0.042599518   -0.004716243
     33        6          -0.015107933   -0.008056614    0.002436408
     34        6           0.002325338    0.009812133   -0.001862972
     35        6           0.019954033    0.006684275   -0.005425168
     36        6           0.004787533    0.002247862    0.000285402
     37        6          -0.057761733   -0.022353482   -0.041942638
     38        8           0.019664848    0.006012564    0.038432409
     39        6          -0.023647767   -0.009473792   -0.001172326
     40        1          -0.008404792   -0.001684846   -0.011403585
     41        1           0.002392846   -0.005302239    0.001255075
     42        1          -0.002047218    0.005996310    0.003385550
     43        1           0.000392894    0.000179724   -0.000092978
     44        1          -0.003987747   -0.001351347   -0.003342629
     45        1          -0.000259744   -0.000212060    0.002395610
     46        1           0.001538535   -0.000320066    0.001139170
     47        1          -0.004595035   -0.000413718    0.000027196
     48        1           0.005001110   -0.000960258    0.006173822
     49        1          -0.002563244    0.000241609   -0.001766944
     50        1           0.044806679    0.002790741    0.010569557
     51        1           0.007072047   -0.011621823    0.000480760
     52        1           0.001785960    0.003983532    0.013705714
     53        1           0.005800677   -0.000311438   -0.012778115
     54        1          -0.000193017   -0.001955178   -0.007039527
     55        1          -0.010565783    0.009305763   -0.002365037
     56        1           0.004880922    0.002071511    0.006053008
     57        1          -0.003373410   -0.002698721    0.001149310
     58        1          -0.000923973    0.001126368   -0.004821304
     59        1          -0.000224870   -0.000287238    0.000298214
 -------------------------------------------------------------------
 Cartesian Forces:  Max     0.061695131 RMS     0.016148994

 GradGradGradGradGradGradGradGradGradGradGradGradGradGradGradGradGradGrad
 Berny optimization.
 FormGI is forming the generalized inverse of G from B-inverse, IUseBI=4.
 Internal  Forces:  Max     0.048560698 RMS     0.009229026
 Search for a local minimum.
 Step number   1 out of a maximum of  345
 All quantities printed in internal units (Hartrees-Bohrs-Radians)
 Mixed Optimization -- RFO/linear search
 Second derivative matrix not updated -- first step.
 ITU=  0
     Eigenvalues ---    0.00574   0.00797   0.01128   0.01137   0.01189
     Eigenvalues ---    0.01194   0.01265   0.01298   0.01327   0.01374
     Eigenvalues ---    0.01397   0.01415   0.01535   0.01546   0.01566
     Eigenvalues ---    0.01591   0.01595   0.01649   0.01700   0.01732
     Eigenvalues ---    0.01782   0.01787   0.01809   0.01838   0.01887
     Eigenvalues ---    0.01901   0.01908   0.01931   0.01944   0.01965
     Eigenvalues ---    0.01976   0.01984   0.02001   0.02013   0.02020
     Eigenvalues ---    0.02069   0.02074   0.02077   0.02083   0.02104
     Eigenvalues ---    0.02111   0.02112   0.02120   0.02121   0.02143
     Eigenvalues ---    0.02164   0.02169   0.02171   0.05789   0.06840
     Eigenvalues ---    0.10103   0.10239   0.10252   0.10395   0.10405
     Eigenvalues ---    0.10414   0.12508   0.13866   0.15971   0.15982
     Eigenvalues ---    0.15986   0.15997   0.15998   0.15999   0.15999
     Eigenvalues ---    0.16000   0.16000   0.16000   0.16000   0.16000
     Eigenvalues ---    0.16000   0.16000   0.16000   0.16000   0.16000
     Eigenvalues ---    0.16000   0.16000   0.16000   0.20236   0.22431
     Eigenvalues ---    0.22568   0.22610   0.23277   0.23476   0.23510
     Eigenvalues ---    0.23556   0.24331   0.24474   0.24551   0.24578
     Eigenvalues ---    0.24674   0.24779   0.24905   0.24964   0.24967
     Eigenvalues ---    0.24989   0.24997   0.24998   0.24999   0.24999
     Eigenvalues ---    0.24999   0.25000   0.25000   0.25000   0.25000
     Eigenvalues ---    0.25000   0.28803   0.28881   0.29937   0.30769
     Eigenvalues ---    0.31894   0.32336   0.32587   0.32688   0.32746
     Eigenvalues ---    0.32819   0.32830   0.32859   0.32988   0.33514
     Eigenvalues ---    0.33842   0.34682   0.35291   0.35466   0.35485
     Eigenvalues ---    0.35521   0.35552   0.35559   0.35569   0.35585
     Eigenvalues ---    0.35604   0.35672   0.35893   0.35937   0.36032
     Eigenvalues ---    0.37427   0.38426   0.38958   0.39814   0.40366
     Eigenvalues ---    0.40640   0.41230   0.41337   0.41855   0.42323
     Eigenvalues ---    0.42461   0.42599   0.43560   0.43751   0.43806
     Eigenvalues ---    0.43839   0.44225   0.44287   0.44430   0.44590
     Eigenvalues ---    0.44680   0.45080   0.45084   0.45175   0.45338
     Eigenvalues ---    0.45452   0.45737   0.45944   0.46131   0.46452
     Eigenvalues ---    0.46678   0.53450   0.54924   0.78812   0.79139
     Eigenvalues ---    0.80143
 RFO step:  Lambda=-6.89670821D-02 EMin= 5.73574946D-03
 Linear search not attempted -- first point.
 Maximum step size (   0.300) exceeded in Quadratic search.
    -- Step size scaled by   0.700
 Iteration  1 RMS(Cart)=  0.05817811 RMS(Int)=  0.00096341
 Iteration  2 RMS(Cart)=  0.00163252 RMS(Int)=  0.00005172
 Iteration  3 RMS(Cart)=  0.00000279 RMS(Int)=  0.00005170
 Iteration  4 RMS(Cart)=  0.00000000 RMS(Int)=  0.00005170
 Variable       Old X    -DE/DX   Delta X   Delta X   Delta X     New X
                                 (Linear)    (Quad)   (Total)
    R1        2.68514  -0.00687   0.00000  -0.00977  -0.00977   2.67536
    R2        2.09783  -0.01230   0.00000  -0.02182  -0.02182   2.07601
    R3        2.09072  -0.00510   0.00000  -0.00896  -0.00896   2.08176
    R4        2.09499  -0.00641   0.00000  -0.01132  -0.01132   2.08367
    R5        2.65178  -0.04118   0.00000  -0.05548  -0.05548   2.59630
    R6        2.66182  -0.01558   0.00000  -0.02204  -0.02205   2.63977
    R7        2.64594   0.00701   0.00000   0.00797   0.00797   2.65391
    R8        2.65124   0.00912   0.00000   0.01300   0.01299   2.66422
    R9        2.04778   0.00042   0.00000   0.00069   0.00069   2.04847
   R10        2.67506   0.01263   0.00000   0.02069   0.02071   2.69577
   R11        2.64931   0.01470   0.00000   0.02054   0.02056   2.66987
   R12        2.65426   0.00496   0.00000   0.00931   0.00934   2.66359
   R13        2.65107   0.01003   0.00000   0.01586   0.01590   2.66697
   R14        2.67428  -0.00903   0.00000  -0.01425  -0.01428   2.66000
   R15        2.82188  -0.01605   0.00000  -0.02909  -0.02910   2.79278
   R16        2.79038  -0.00259   0.00000  -0.00403  -0.00404   2.78633
   R17        2.65484   0.00683   0.00000   0.00775   0.00773   2.66257
   R18        2.38563  -0.04856   0.00000  -0.03968  -0.03968   2.34594
   R19        2.77041   0.03235   0.00000   0.05374   0.05374   2.82415
   R20        2.63647  -0.01294   0.00000  -0.01765  -0.01765   2.61882
   R21        2.04894   0.00009   0.00000   0.00015   0.00015   2.04909
   R22        2.05205  -0.00009   0.00000  -0.00015  -0.00015   2.05190
   R23        2.64369  -0.03127   0.00000  -0.04177  -0.04177   2.60192
   R24        2.64114  -0.01969   0.00000  -0.02678  -0.02677   2.61437
   R25        2.71140   0.00788   0.00000   0.00979   0.00978   2.72118
   R26        2.89044  -0.00296   0.00000  -0.00477  -0.00479   2.88565
   R27        2.87157  -0.00744   0.00000  -0.01274  -0.01275   2.85882
   R28        2.89167   0.01012   0.00000   0.01706   0.01704   2.90870
   R29        2.64968   0.00693   0.00000   0.00861   0.00861   2.65830
   R30        2.66684  -0.00994   0.00000  -0.01427  -0.01428   2.65257
   R31        2.62497  -0.01150   0.00000  -0.01521  -0.01520   2.60976
   R32        2.04837   0.00123   0.00000   0.00203   0.00203   2.05040
   R33        2.65050   0.01183   0.00000   0.01618   0.01618   2.66668
   R34        2.04787  -0.00026   0.00000  -0.00042  -0.00042   2.04745
   R35        2.69122   0.00895   0.00000   0.01433   0.01432   2.70554
   R36        2.67765   0.00223   0.00000   0.00326   0.00325   2.68090
   R37        2.66356   0.00243   0.00000   0.00389   0.00388   2.66744
   R38        2.69879   0.00601   0.00000   0.00918   0.00918   2.70797
   R39        2.62946  -0.00954   0.00000  -0.01249  -0.01248   2.61698
   R40        2.04180  -0.00012   0.00000  -0.00020  -0.00020   2.04160
   R41        2.63928   0.01214   0.00000   0.01536   0.01538   2.65466
   R42        2.04705   0.00240   0.00000   0.00396   0.00396   2.05101
   R43        2.63984  -0.02687   0.00000  -0.03550  -0.03550   2.60434
   R44        2.67285  -0.01773   0.00000  -0.02531  -0.02531   2.64754
   R45        1.91454  -0.04032   0.00000  -0.05395  -0.05395   1.86059
   R46        2.66648  -0.03451   0.00000  -0.04764  -0.04764   2.61884
   R47        2.69777  -0.00660   0.00000  -0.00958  -0.00958   2.68819
   R48        2.09370  -0.00913   0.00000  -0.01609  -0.01609   2.07761
   R49        2.10233  -0.01368   0.00000  -0.02442  -0.02442   2.07791
   R50        2.11038  -0.01326   0.00000  -0.02393  -0.02393   2.08644
   R51        2.80267   0.00287   0.00000   0.00381   0.00382   2.80649
   R52        2.38383  -0.03724   0.00000  -0.03032  -0.03032   2.35351
   R53        2.76479   0.00001   0.00000  -0.00077  -0.00076   2.76403
   R54        2.65943  -0.04466   0.00000  -0.06095  -0.06095   2.59849
   R55        2.53765   0.00111   0.00000   0.00139   0.00139   2.53904
   R56        2.69108  -0.00616   0.00000  -0.00885  -0.00885   2.68223
   R57        2.09299  -0.00689   0.00000  -0.01215  -0.01215   2.08085
   R58        2.09603  -0.01178   0.00000  -0.02084  -0.02084   2.07519
   R59        2.09351  -0.00679   0.00000  -0.01198  -0.01198   2.08153
   R60        2.04031   0.00259   0.00000   0.00423   0.00423   2.04454
   R61        2.55076   0.00545   0.00000   0.00595   0.00596   2.55672
   R62        2.77769  -0.00576   0.00000  -0.00861  -0.00859   2.76910
   R63        2.04736   0.00089   0.00000   0.00146   0.00146   2.04882
   R64        2.37838  -0.04355   0.00000  -0.03505  -0.03505   2.34334
   R65        2.04925   0.00043   0.00000   0.00071   0.00071   2.04996
    A1        1.90546  -0.01299   0.00000  -0.04099  -0.04092   1.86454
    A2        1.92210   0.00546   0.00000   0.01734   0.01726   1.93936
    A3        1.92057   0.00594   0.00000   0.01882   0.01875   1.93932
    A4        1.89723   0.00227   0.00000   0.00566   0.00573   1.90296
    A5        1.89772   0.00205   0.00000   0.00501   0.00510   1.90282
    A6        1.92035  -0.00292   0.00000  -0.00651  -0.00671   1.91364
    A7        2.17288  -0.03276   0.00000  -0.07194  -0.07194   2.10093
    A8        2.13581   0.00477   0.00000   0.01143   0.01143   2.14724
    A9        2.06369  -0.01648   0.00000  -0.03522  -0.03523   2.02846
   A10        2.08368   0.01171   0.00000   0.02380   0.02380   2.10748
   A11        2.09882  -0.00392   0.00000  -0.00771  -0.00772   2.09110
   A12        2.10161   0.00210   0.00000   0.00429   0.00429   2.10590
   A13        2.08276   0.00182   0.00000   0.00342   0.00343   2.08619
   A14        2.09130  -0.00350   0.00000  -0.00487  -0.00490   2.08641
   A15        2.10168   0.01226   0.00000   0.02205   0.02203   2.12371
   A16        2.09020  -0.00876   0.00000  -0.01717  -0.01713   2.07307
   A17        2.09813   0.00158   0.00000   0.00314   0.00314   2.10127
   A18        2.08860  -0.00493   0.00000  -0.01011  -0.01012   2.07847
   A19        2.09638   0.00336   0.00000   0.00697   0.00699   2.10337
   A20        2.08434   0.00039   0.00000   0.00213   0.00212   2.08646
   A21        2.09140  -0.00462   0.00000  -0.00685  -0.00682   2.08458
   A22        2.10731   0.00423   0.00000   0.00472   0.00470   2.11201
   A23        2.08253   0.00330   0.00000   0.00743   0.00742   2.08995
   A24        2.09340   0.00090   0.00000  -0.00040  -0.00043   2.09298
   A25        2.10723  -0.00421   0.00000  -0.00703  -0.00700   2.10024
   A26        2.11447   0.00417   0.00000   0.00834   0.00834   2.12281
   A27        2.07059  -0.00474   0.00000  -0.00877  -0.00878   2.06180
   A28        2.09811   0.00057   0.00000   0.00044   0.00045   2.09856
   A29        2.10221   0.00353   0.00000   0.00549   0.00546   2.10768
   A30        2.10715  -0.00727   0.00000  -0.01958  -0.01957   2.08758
   A31        2.07378   0.00374   0.00000   0.01411   0.01412   2.08790
   A32        2.09784   0.00236   0.00000   0.00684   0.00686   2.10470
   A33        2.10593  -0.00366   0.00000  -0.01101  -0.01102   2.09491
   A34        2.07941   0.00130   0.00000   0.00416   0.00416   2.08357
   A35        2.11194   0.00424   0.00000   0.00924   0.00924   2.12118
   A36        2.09443   0.00662   0.00000   0.01563   0.01565   2.11008
   A37        2.07663  -0.01087   0.00000  -0.02499  -0.02503   2.05160
   A38        2.18023  -0.00655   0.00000  -0.02225  -0.02226   2.15797
   A39        1.86711  -0.00279   0.00000  -0.00986  -0.01004   1.85707
   A40        1.86356  -0.00039   0.00000  -0.00304  -0.00318   1.86037
   A41        1.95712   0.00626   0.00000   0.02101   0.02099   1.97812
   A42        2.00223  -0.00336   0.00000  -0.01345  -0.01353   1.98871
   A43        1.90033   0.00127   0.00000   0.00652   0.00656   1.90689
   A44        1.87513  -0.00068   0.00000  -0.00028  -0.00025   1.87487
   A45        2.06328  -0.00572   0.00000  -0.01360  -0.01359   2.04969
   A46        2.13367   0.00099   0.00000   0.00546   0.00546   2.13913
   A47        2.08516   0.00474   0.00000   0.00830   0.00829   2.09344
   A48        2.11224  -0.00046   0.00000  -0.00213  -0.00213   2.11010
   A49        2.09775  -0.00097   0.00000  -0.00257  -0.00258   2.09517
   A50        2.07304   0.00144   0.00000   0.00478   0.00478   2.07782
   A51        2.10602   0.00018   0.00000   0.00123   0.00121   2.10723
   A52        2.06048   0.00457   0.00000   0.01378   0.01377   2.07425
   A53        2.11514  -0.00468   0.00000  -0.01450  -0.01451   2.10063
   A54        2.08173  -0.00085   0.00000  -0.00025  -0.00026   2.08148
   A55        2.09412   0.00068   0.00000  -0.00065  -0.00064   2.09349
   A56        2.10695   0.00018   0.00000   0.00101   0.00099   2.10793
   A57        2.06379  -0.00075   0.00000  -0.00034  -0.00038   2.06341
   A58        2.08486  -0.00414   0.00000  -0.00762  -0.00764   2.07723
   A59        2.13312   0.00494   0.00000   0.00838   0.00840   2.14152
   A60        2.10968  -0.00470   0.00000  -0.01003  -0.01005   2.09963
   A61        2.13771  -0.00420   0.00000  -0.01496  -0.01496   2.12275
   A62        2.03477   0.00893   0.00000   0.02529   0.02530   2.06007
   A63        2.11119   0.00532   0.00000   0.01200   0.01201   2.12320
   A64        2.07940  -0.00095   0.00000  -0.00075  -0.00075   2.07865
   A65        2.09259  -0.00438   0.00000  -0.01125  -0.01125   2.08134
   A66        2.07344   0.00862   0.00000   0.01971   0.01971   2.09315
   A67        2.09176  -0.00027   0.00000  -0.00216  -0.00215   2.08961
   A68        2.11797  -0.00835   0.00000  -0.01755  -0.01756   2.10041
   A69        2.12819  -0.04286   0.00000  -0.13110  -0.13110   1.99710
   A70        2.07949   0.00034   0.00000   0.00048   0.00047   2.07996
   A71        2.06083  -0.02173   0.00000  -0.04758  -0.04757   2.01326
   A72        2.14286   0.02139   0.00000   0.04709   0.04710   2.18996
   A73        2.20019  -0.01054   0.00000  -0.02314  -0.02314   2.17705
   A74        1.90544  -0.01653   0.00000  -0.05134  -0.05123   1.85421
   A75        1.92506   0.00753   0.00000   0.02322   0.02321   1.94826
   A76        1.92892   0.00396   0.00000   0.01274   0.01269   1.94160
   A77        1.89578   0.00319   0.00000   0.00855   0.00870   1.90449
   A78        1.86856   0.00591   0.00000   0.01777   0.01783   1.88639
   A79        1.93868  -0.00450   0.00000  -0.01236  -0.01250   1.92618
   A80        2.08364   0.00079   0.00000   0.00258   0.00255   2.08619
   A81        2.04320   0.00606   0.00000   0.01295   0.01295   2.05615
   A82        2.15498  -0.00691   0.00000  -0.01593  -0.01593   2.13905
   A83        2.12024   0.00394   0.00000   0.00963   0.00958   2.12982
   A84        2.09553  -0.00757   0.00000  -0.01712  -0.01716   2.07836
   A85        2.06276   0.00377   0.00000   0.00921   0.00916   2.07192
   A86        2.03346  -0.02466   0.00000  -0.05605  -0.05606   1.97740
   A87        2.12848   0.00496   0.00000   0.01468   0.01468   2.14316
   A88        2.12117   0.01972   0.00000   0.04143   0.04143   2.16260
   A89        2.18859  -0.03202   0.00000  -0.07031  -0.07031   2.11828
   A90        1.92207   0.00295   0.00000   0.00946   0.00935   1.93142
   A91        1.90880  -0.01414   0.00000  -0.04450  -0.04443   1.86437
   A92        1.91723   0.00832   0.00000   0.02631   0.02629   1.94352
   A93        1.89823   0.00363   0.00000   0.00944   0.00941   1.90764
   A94        1.92522  -0.00291   0.00000  -0.00649  -0.00667   1.91855
   A95        1.89185   0.00191   0.00000   0.00501   0.00518   1.89703
   A96        2.12919  -0.00083   0.00000  -0.00062  -0.00059   2.12859
   A97        2.04498  -0.00323   0.00000  -0.01082  -0.01084   2.03414
   A98        2.10823   0.00402   0.00000   0.01123   0.01121   2.11943
[...]
                 (A) (A) (A) (A) (A) (A) (A) (A) (A) (A) (A) (A)
                 (A) (A) (A) (A) (A) (A) (A) (A) (A) (A) (A) (A)
                 (A) (A) (A) (A) (A) (A) (A) (A) (A) (A) (A) (A)
                 (A) (A) (A) (A) (A) (A) (A) (A) (A) (A) (A) (A)
                 (A) (A) (A)
       Virtual   (A) (A) (A) (A) (A) (A) (A) (A) (A) (A) (A) (A)
                 (A) (A) (A) (A) (A) (A) (A) (A) (A) (A) (A) (A)
                 (A) (A) (A) (A) (A) (A) (A) (A) (A) (A) (A) (A)
                 (A) (A) (A) (A) (A) (A) (A) (A) (A) (A) (A) (A)
                 (A) (A) (A) (A) (A) (A) (A) (A) (A) (A) (A) (A)
                 (A) (A) (A) (A) (A) (A) (A) (A) (A) (A) (A) (A)
                 (A) (A) (A) (A) (A) (A) (A) (A) (A) (A) (A) (A)
                 (A) (A) (A) (A) (A) (A) (A) (A) (A) (A) (A) (A)
                 (A) (A) (A) (A) (A) (A) (A) (A) (A) (A) (A) (A)
                 (A) (A) (A) (A) (A) (A) (A) (A) (A) (A) (A) (A)
                 (A) (A) (A) (A) (A) (A) (A) (A) (A) (A) (A) (A)
                 (A) (A) (A) (A) (A) (A) (A) (A) (A) (A) (A) (A)
                 (A) (A) (A) (A) (A) (A) (A) (A) (A) (A) (A) (A)
                 (A) (A) (A) (A) (A) (A) (A) (A) (A) (A) (A) (A)
                 (A) (A) (A) (A) (A) (A) (A) (A) (A) (A) (A) (A)
                 (A) (A) (A) (A) (A) (A) (A) (A) (A) (A) (A) (A)
                 (A) (A) (A) (A) (A) (A) (A) (A) (A) (A) (A) (A)
                 (A) (A) (A) (A) (A) (A) (A) (A) (A) (A) (A) (A)
                 (A) (A) (A) (A) (A) (A) (A) (A) (A) (A) (A) (A)
                 (A) (A) (A) (A) (A) (A) (A) (A) (A) (A) (A) (A)
                 (A) (A) (A) (A) (A) (A) (A) (A) (A) (A) (A) (A)
                 (A) (A) (A) (A) (A) (A) (A) (A) (A) (A) (A) (A)
                 (A) (A) (A) (A) (A) (A) (A) (A) (A) (A) (A) (A)
                 (A) (A) (A) (A) (A) (A) (A) (A) (A) (A) (A) (A)
                 (A) (A) (A) (A) (A) (A) (A) (A) (A) (A) (A) (A)
                 (A) (A) (A) (A) (A) (A) (A) (A) (A) (A) (A) (A)
                 (A) (A) (A) (A) (A) (A) (A) (A) (A) (A) (A) (A)
                 (A) (A) (A) (A) (A) (A) (A) (A) (A) (A) (A) (A)
                 (A) (A) (A) (A) (A) (A) (A) (A) (A) (A) (A) (A)
                 (A) (A) (A) (A) (A) (A) (A) (A) (A) (A) (A) (A)
                 (A) (A) (A) (A) (A) (A) (A) (A) (A) (A) (A) (A)
                 (A) (A) (A) (A) (A) (A) (A) (A) (A) (A) (A) (A)
                 (A) (A) (A) (A) (A) (A) (A) (A) (A) (A) (A) (A)
                 (A) (A) (A) (A) (A) (A) (A) (A) (A) (A) (A) (A)
                 (A) (A) (A) (A) (A) (A) (A) (A) (A) (A) (A) (A)
                 (A) (A) (A) (A) (A) (A) (A) (A) (A) (A) (A) (A)
                 (A) (A) (A) (A) (A) (A) (A) (A) (A) (A) (A) (A)
                 (A) (A) (A) (A) (A) (A) (A) (A) (A) (A) (A) (A)
                 (A) (A) (A) (A) (A) (A) (A) (A) (A) (A) (A) (A)
                 (A) (A) (A) (A) (A) (A) (A) (A) (A) (A) (A) (A)
                 (A) (A) (A) (A) (A) (A) (A) (A) (A) (A)
 The electronic state is 1-A.
 Alpha  occ. eigenvalues --  -19.21305 -19.19991 -19.19758 -19.18934 -19.16565
 Alpha  occ. eigenvalues --  -19.14985 -19.14938 -19.12945 -10.29657 -10.28135
 Alpha  occ. eigenvalues --  -10.27849 -10.27812 -10.27645 -10.27099 -10.27079
 Alpha  occ. eigenvalues --  -10.26083 -10.25520 -10.25469 -10.24395 -10.24193
 Alpha  occ. eigenvalues --  -10.23068 -10.22979 -10.22370 -10.21886 -10.21727
 Alpha  occ. eigenvalues --  -10.21220 -10.21057 -10.20986 -10.20834 -10.20773
 Alpha  occ. eigenvalues --  -10.20755 -10.20491 -10.19898 -10.19884 -10.19858
 Alpha  occ. eigenvalues --  -10.19816 -10.19815 -10.19526 -10.18567  -1.10587
 Alpha  occ. eigenvalues --   -1.08452  -1.08291  -1.07311  -1.05675  -1.04557
 Alpha  occ. eigenvalues --   -1.03056  -1.02964  -0.89826  -0.88984  -0.86820
 Alpha  occ. eigenvalues --   -0.84163  -0.82360  -0.81467  -0.78816  -0.77967
 Alpha  occ. eigenvalues --   -0.77727  -0.75690  -0.75003  -0.74084  -0.73365
 Alpha  occ. eigenvalues --   -0.72724  -0.70944  -0.68756  -0.68000  -0.64803
 Alpha  occ. eigenvalues --   -0.64768  -0.63275  -0.62892  -0.62132  -0.61660
 Alpha  occ. eigenvalues --   -0.59659  -0.57066  -0.56623  -0.56420  -0.54493
 Alpha  occ. eigenvalues --   -0.54192  -0.53457  -0.53178  -0.52231  -0.51462
 Alpha  occ. eigenvalues --   -0.51005  -0.49881  -0.49386  -0.49153  -0.48801
 Alpha  occ. eigenvalues --   -0.48477  -0.47873  -0.46863  -0.46664  -0.46023
 Alpha  occ. eigenvalues --   -0.45717  -0.45079  -0.44594  -0.44249  -0.44101
 Alpha  occ. eigenvalues --   -0.43818  -0.43396  -0.43094  -0.42585  -0.42041
 Alpha  occ. eigenvalues --   -0.41770  -0.41649  -0.41276  -0.40714  -0.40477
 Alpha  occ. eigenvalues --   -0.40200  -0.39990  -0.39657  -0.38780  -0.37979
 Alpha  occ. eigenvalues --   -0.37760  -0.37274  -0.37095  -0.36785  -0.36447
 Alpha  occ. eigenvalues --   -0.36054  -0.35797  -0.35427  -0.35036  -0.33797
 Alpha  occ. eigenvalues --   -0.33455  -0.32486  -0.31230  -0.29660  -0.28704
 Alpha  occ. eigenvalues --   -0.28504  -0.27111  -0.26102  -0.25693  -0.24601
 Alpha  occ. eigenvalues --   -0.24439  -0.23937  -0.23893  -0.21513  -0.20650
 Alpha virt. eigenvalues --   -0.11716  -0.07563  -0.04767  -0.03635  -0.01764
 Alpha virt. eigenvalues --   -0.01031   0.00449   0.02735   0.03822   0.05749
 Alpha virt. eigenvalues --    0.07178   0.07867   0.08107   0.08507   0.08968
 Alpha virt. eigenvalues --    0.09609   0.09845   0.10115   0.11604   0.11803
 Alpha virt. eigenvalues --    0.12755   0.13246   0.13414   0.13761   0.14077
 Alpha virt. eigenvalues --    0.14255   0.14597   0.14974   0.15278   0.15418
 Alpha virt. eigenvalues --    0.15515   0.16195   0.16433   0.17939   0.18225
 Alpha virt. eigenvalues --    0.18511   0.18896   0.20139   0.20472   0.20915
 Alpha virt. eigenvalues --    0.21209   0.22213   0.22414   0.22880   0.23425
 Alpha virt. eigenvalues --    0.23647   0.24238   0.25011   0.25441   0.26023
 Alpha virt. eigenvalues --    0.26839   0.27494   0.28125   0.29526   0.30778
 Alpha virt. eigenvalues --    0.31280   0.32173   0.33201   0.34171   0.34879
 Alpha virt. eigenvalues --    0.35604   0.35971   0.36129   0.37643   0.38503
 Alpha virt. eigenvalues --    0.38545   0.39966   0.40466   0.42612   0.44438
 Alpha virt. eigenvalues --    0.45077   0.45392   0.46508   0.46746   0.47389
 Alpha virt. eigenvalues --    0.48429   0.48829   0.48995   0.49124   0.49523
 Alpha virt. eigenvalues --    0.49610   0.49837   0.50494   0.51306   0.51527
 Alpha virt. eigenvalues --    0.52277   0.52501   0.52724   0.53263   0.53429
 Alpha virt. eigenvalues --    0.53972   0.54131   0.54209   0.54520   0.55016
 Alpha virt. eigenvalues --    0.55090   0.55687   0.56071   0.56726   0.57072
 Alpha virt. eigenvalues --    0.57465   0.57595   0.57757   0.58330   0.58553
 Alpha virt. eigenvalues --    0.59122   0.59431   0.60085   0.60368   0.61000
 Alpha virt. eigenvalues --    0.61348   0.61885   0.62094   0.62793   0.62948
 Alpha virt. eigenvalues --    0.63260   0.63660   0.63840   0.64797   0.65511
 Alpha virt. eigenvalues --    0.65774   0.65918   0.66613   0.67078   0.67344
 Alpha virt. eigenvalues --    0.67657   0.68466   0.68847   0.69741   0.70632
 Alpha virt. eigenvalues --    0.71451   0.72456   0.72846   0.73036   0.73488
 Alpha virt. eigenvalues --    0.74148   0.74489   0.75707   0.77348   0.78342
 Alpha virt. eigenvalues --    0.78899   0.80557   0.80721   0.81497   0.81757
 Alpha virt. eigenvalues --    0.82190   0.82287   0.82851   0.83290   0.83679
 Alpha virt. eigenvalues --    0.83847   0.84017   0.84097   0.84313   0.84852
 Alpha virt. eigenvalues --    0.85132   0.85444   0.85633   0.86147   0.86376
 Alpha virt. eigenvalues --    0.87022   0.87810   0.88229   0.88408   0.89399
 Alpha virt. eigenvalues --    0.90005   0.90739   0.91180   0.91944   0.92173
 Alpha virt. eigenvalues --    0.92386   0.92857   0.93370   0.93584   0.94140
 Alpha virt. eigenvalues --    0.94416   0.95764   0.96187   0.96703   0.97233
 Alpha virt. eigenvalues --    0.98285   0.98909   0.99273   0.99723   1.00169
 Alpha virt. eigenvalues --    1.01556   1.02884   1.03252   1.03653   1.04131
 Alpha virt. eigenvalues --    1.05072   1.05611   1.06080   1.06441   1.06927
 Alpha virt. eigenvalues --    1.08016   1.08723   1.09538   1.09782   1.10171
 Alpha virt. eigenvalues --    1.11121   1.11453   1.11930   1.12634   1.13558
 Alpha virt. eigenvalues --    1.14065   1.15307   1.16757   1.17358   1.18586
 Alpha virt. eigenvalues --    1.19155   1.19586   1.20119   1.21751   1.22133
 Alpha virt. eigenvalues --    1.22563   1.22999   1.23984   1.24636   1.25242
 Alpha virt. eigenvalues --    1.26462   1.26827   1.27366   1.27502   1.29405
 Alpha virt. eigenvalues --    1.30552   1.31522   1.31713   1.32784   1.33307
 Alpha virt. eigenvalues --    1.35006   1.35398   1.35622   1.36028   1.36985
 Alpha virt. eigenvalues --    1.37460   1.37748   1.38508   1.39296   1.39788
 Alpha virt. eigenvalues --    1.40492   1.40725   1.40995   1.42084   1.42237
 Alpha virt. eigenvalues --    1.42909   1.43645   1.44172   1.44907   1.45629
 Alpha virt. eigenvalues --    1.45973   1.46420   1.46998   1.47965   1.49162
 Alpha virt. eigenvalues --    1.49712   1.50030   1.50801   1.51369   1.52146
 Alpha virt. eigenvalues --    1.52580   1.53890   1.55348   1.57884   1.59312
 Alpha virt. eigenvalues --    1.61272   1.62131   1.63607   1.64854   1.65814
 Alpha virt. eigenvalues --    1.66549   1.67672   1.69283   1.70950   1.71276
 Alpha virt. eigenvalues --    1.71660   1.72244   1.73102   1.73494   1.73708
 Alpha virt. eigenvalues --    1.73865   1.74357   1.74921   1.75159   1.75815
 Alpha virt. eigenvalues --    1.75852   1.77410   1.77636   1.78296   1.79010
 Alpha virt. eigenvalues --    1.79938   1.80609   1.81780   1.82034   1.83028
 Alpha virt. eigenvalues --    1.83512   1.84498   1.85013   1.86322   1.86442
 Alpha virt. eigenvalues --    1.86620   1.87302   1.88375   1.88883   1.89444
 Alpha virt. eigenvalues --    1.89699   1.90084   1.90530   1.91158   1.91370
 Alpha virt. eigenvalues --    1.92717   1.92775   1.93569   1.93877   1.94408
 Alpha virt. eigenvalues --    1.94800   1.95740   1.96053   1.98110   1.98282
 Alpha virt. eigenvalues --    1.98621   1.99143   1.99344   2.00258   2.00466
 Alpha virt. eigenvalues --    2.01631   2.02029   2.02952   2.03570   2.04676
 Alpha virt. eigenvalues --    2.05030   2.05898   2.05983   2.06659   2.07091
 Alpha virt. eigenvalues --    2.07593   2.08200   2.08979   2.09430   2.10790
 Alpha virt. eigenvalues --    2.11603   2.12895   2.13575   2.15058   2.15849
 Alpha virt. eigenvalues --    2.17084   2.18803   2.19168   2.19953   2.20198
 Alpha virt. eigenvalues --    2.21134   2.21580   2.21909   2.23105   2.23500
 Alpha virt. eigenvalues --    2.24578   2.25287   2.25423   2.26711   2.27494
 Alpha virt. eigenvalues --    2.27930   2.28193   2.29502   2.29801   2.30444
 Alpha virt. eigenvalues --    2.31217   2.31511   2.32544   2.32756   2.33187
 Alpha virt. eigenvalues --    2.33946   2.34203   2.35416   2.36033   2.36714
 Alpha virt. eigenvalues --    2.37714   2.39693   2.40327   2.41943   2.42593
 Alpha virt. eigenvalues --    2.44118   2.44868   2.46197   2.46553   2.47221
 Alpha virt. eigenvalues --    2.48959   2.49736   2.50447   2.51448   2.52478
 Alpha virt. eigenvalues --    2.53077   2.53148   2.56903   2.57475   2.57653
 Alpha virt. eigenvalues --    2.60418   2.60584   2.61455   2.62015   2.63928
 Alpha virt. eigenvalues --    2.64307   2.64790   2.66498   2.66764   2.67056
 Alpha virt. eigenvalues --    2.68353   2.68791   2.70511   2.71039   2.71582
 Alpha virt. eigenvalues --    2.73116   2.74375   2.75631   2.77158   2.78625
 Alpha virt. eigenvalues --    2.79582   2.80585   2.83210   2.83689   2.84640
 Alpha virt. eigenvalues --    2.85436   2.85818   2.87171   2.87815   2.90557
 Alpha virt. eigenvalues --    2.91123   2.92003   2.92601   2.94062   2.95447
 Alpha virt. eigenvalues --    2.97178   2.98191   2.99500   3.02282   3.04215
 Alpha virt. eigenvalues --    3.05871   3.07764   3.09858   3.10581   3.12551
 Alpha virt. eigenvalues --    3.13524   3.18090   3.19262   3.20908   3.23597
 Alpha virt. eigenvalues --    3.28137   3.32001   3.41923   3.46516   3.49505
 Alpha virt. eigenvalues --    3.52068   3.85358   3.89463   3.99757   4.03246
 Alpha virt. eigenvalues --    4.05405   4.07737   4.07790   4.08875   4.09328
 Alpha virt. eigenvalues --    4.10149   4.11969   4.12718   4.14415   4.17303
 Alpha virt. eigenvalues --    4.18537   4.21264   4.22855   4.23589   4.24463
 Alpha virt. eigenvalues --    4.26075   4.30213   4.33370   4.33735   4.35087
 Alpha virt. eigenvalues --    4.36420   4.38846   4.42951   4.44631   4.48705
 Alpha virt. eigenvalues --    4.51785   4.54249   4.62562   4.65769   4.71349
 Alpha virt. eigenvalues --    4.83558   4.88753   4.98531   5.00532   5.11160
          Condensed to atoms (all electrons):
 Mulliken charges:
               1
     1  C   -0.218390
     2  O   -0.505697
     3  C    0.401438
     4  C   -0.298753
     5  C    0.167280
     6  C    0.003022
     7  C    0.058406
     8  C    0.022149
     9  C    0.321100
    10  O   -0.439594
    11  C   -0.169760
    12  C   -0.204903
    13  C    0.369593
    14  O   -0.576734
    15  C    0.072189
    16  C    0.069517
    17  C   -0.166957
    18  C   -0.181275
    19  C    0.085779
    20  C    0.051407
    21  C   -0.193392
    22  C   -0.202411
    23  C    0.330488
    24  O   -0.644092
    25  C    0.242744
    26  O   -0.525217
    27  C   -0.218102
    28  C   -0.013407
    29  C    0.418556
    30  O   -0.509063
    31  C    0.474354
    32  O   -0.497259
    33  C   -0.226129
    34  C   -0.297519
    35  C    0.138196
    36  C   -0.296260
    37  C    0.410602
    38  O   -0.437914
    39  C   -0.260543
    40  H    0.177234
    41  H    0.159403
    42  H    0.157883
    43  H    0.134847
    44  H    0.166663
    45  H    0.138409
    46  H    0.142894
    47  H    0.157802
    48  H    0.193501
    49  H    0.126754
    50  H    0.412732
    51  H    0.160417
    52  H    0.144774
    53  H    0.172916
    54  H    0.171237
    55  H    0.183188
    56  H    0.171154
    57  H    0.149769
    58  H    0.167138
    59  H    0.157836
 Sum of Mulliken charges =  -0.00000
 Mulliken charges with hydrogens summed into heavy atoms:
               1
     1  C    0.276130
     2  O   -0.505697
     3  C    0.401438
     4  C   -0.163907
     5  C    0.167280
     6  C    0.003022
     7  C    0.058406
     8  C    0.022149
     9  C    0.321100
    10  O   -0.439594
    11  C   -0.003096
    12  C   -0.066494
    13  C    0.369593
    14  O   -0.576734
    15  C    0.072189
    16  C    0.069517
    17  C   -0.024063
    18  C   -0.023473
    19  C    0.085779
    20  C    0.051407
    21  C    0.000109
    22  C   -0.075657
    23  C    0.330488
    24  O   -0.231360
    25  C    0.242744
    26  O   -0.525217
    27  C    0.260005
    28  C   -0.013407
    29  C    0.418556
    30  O   -0.509063
    31  C    0.474354
    32  O   -0.497259
    33  C    0.299450
    34  C   -0.147750
    35  C    0.138196
    36  C   -0.129122
    37  C    0.410602
    38  O   -0.437914
    39  C   -0.102708
 Electronic spatial extent (au):  <R**2>=          20765.0734
 Charge=             -0.0000 electrons
 Dipole moment (field-independent basis, Debye):
    X=             -2.9781    Y=             -5.2238    Z=              0.5188  Tot=              6.0354
 Quadrupole moment (field-independent basis, Debye-Ang):
   XX=           -159.6691   YY=           -251.5336   ZZ=           -208.2989
   XY=             21.6521   XZ=             -4.3756   YZ=              3.6181
 Traceless Quadrupole moment (field-independent basis, Debye-Ang):
   XX=             46.8314   YY=            -45.0330   ZZ=             -1.7984
   XY=             21.6521   XZ=             -4.3756   YZ=              3.6181
 Octapole moment (field-independent basis, Debye-Ang**2):
  XXX=             81.6612  YYY=           -218.6440  ZZZ=              3.2277  XYY=            -13.3413
  XXY=            -91.9578  XXZ=            -23.8475  XZZ=            -48.0888  YZZ=              4.8423
  YYZ=             23.7528  XYZ=            -54.6546
 Hexadecapole moment (field-independent basis, Debye-Ang**3):
 XXXX=         -13880.6922 YYYY=          -6008.7024 ZZZZ=          -3624.9645 XXXY=            649.3443
 XXXZ=            578.6684 YYYX=            520.1101 YYYZ=            197.9190 ZZZX=           -490.4174
 ZZZY=             -4.1034 XXYY=          -3697.5414 XXZZ=          -3527.6878 YYZZ=          -1496.7974
 XXYZ=             -7.4945 YYXZ=             29.9080 ZZXY=             87.4902
 N-N= 4.253368037829D+03 E-N=-1.268860811376D+04  KE= 1.778830294842D+03
 1\1\GINC-C085\FOpt\RB3LYP\6-31G(d)\C31H20O8\XYCAO\28-Dec-2023\0\\# opt
  b3lyp/6-31g(d)\\molecule_10_1\\0,1\C,5.5887650479,1.0177299181,4.5899
 222636\O,4.2560477477,0.6376584482,4.272793762\C,3.9030894453,0.551205
 5673,2.9647405272\C,4.7491153401,0.8045778686,1.896509186\C,4.26140325
 25,0.6813359682,0.5729524372\C,2.9044996707,0.2840079685,0.3465567907\
 C,2.3963265627,0.1547450044,-0.9664741707\C,3.2207409768,0.4556403118,
 -2.0569296628\C,2.7026921051,0.3592708423,-3.4369928216\O,3.374730011,
 0.6073062906,-4.4241799487\C,4.5602735169,0.8544218932,-1.8377458756\C
 ,5.0699882671,0.9551270311,-0.5642677773\C,2.0693672999,0.0452131582,1
 .4735770601\O,0.7441425464,-0.2346339173,1.3272240866\C,0.2175428945,-
 0.7567456213,0.0790918513\C,-1.2190226557,-0.2394058027,0.0298341484\C
 ,-1.3576965914,1.1686704141,0.0851530988\C,-2.5934665847,1.7566481611,
 0.0421066566\C,-3.7666140103,0.9657433182,-0.0672297692\C,-3.654303765
 1,-0.4660558838,-0.1192875974\C,-4.8591330308,-1.211696369,-0.22869115
 68\C,-6.08023988,-0.5763275988,-0.2693624798\C,-6.1918389983,0.8284824
 949,-0.2039477716\O,-7.4045917304,1.4619801954,-0.2196780577\C,-5.0412
 751302,1.5978574436,-0.1150472991\O,-5.0901816301,2.9665780769,-0.0069
 001787\C,-5.6020139438,3.6688428314,-1.1458784094\C,-2.3374433221,-1.0
 624701174,-0.0628944406\C,-2.1356123997,-2.5497371357,-0.0753724235\O,
 -3.051509092,-3.3647801912,-0.1866499057\C,0.3132174497,-2.2697962858,
 0.1534533144\O,1.5924557808,-2.6643856125,0.291337063\C,1.8610181922,-
 4.062386913,0.4024709571\C,-0.7682841556,-3.0630816321,0.0683177405\C,
 1.0147115691,-0.2954140316,-1.1565349868\C,0.4663440907,-0.3970543424,
 -2.3888966792\C,1.2236254939,-0.0789463825,-3.6063353773\O,0.736366928
 2,-0.1599595052,-4.7214642525\C,2.5525226567,0.1701954627,2.7533424216
 \H,5.6456906753,1.020480021,5.6794340435\H,5.8190490924,2.0206628009,4
 .2090865328\H,6.3150006456,0.3003904204,4.1872769668\H,5.7788858694,1.
 1055348588,2.0468733069\H,5.1701723306,1.0738416515,-2.7081722509\H,6.
 1024820434,1.2580690272,-0.4103904992\H,-0.4678758532,1.7838114323,0.1
 718812914\H,-2.6994542285,2.8338094051,0.0963779392\H,-4.8072098691,-2
 .2882711574,-0.2770497927\H,-6.9902876581,-1.170141688,-0.3469741531\H
 ,-8.1030887481,0.7917965636,-0.2790867739\H,-5.4984119483,4.7309788214
 ,-0.9128109479\H,-5.0161760233,3.4338026029,-2.0439163208\H,-6.6550586
 065,3.4310139351,-1.3203221978\H,1.3478693307,-4.4877714535,1.27212229
 56\H,2.9406913888,-4.1462539306,0.5280503605\H,1.5481013301,-4.5907991
 705,-0.5051387958\H,-0.6987436889,-4.1440677234,0.092623175\H,-0.55681
 18269,-0.7288834717,-2.5356782267\H,1.9082558187,-0.0079342719,3.60637
 17239\\Version=ES64L-G16RevA.03\State=1-A\HF=-1795.0798458\RMSD=7.548e
 -09\RMSF=3.661e-06\Dipole=0.8832262,-0.1305788,2.2002517\Quadrupole=28
 .9748562,-0.7194187,-28.2554374,-4.1936839,24.6228729,-1.18244\PG=C01 
 [X(C31H20O8)]\\@


 KINETICS       FACT
 ---------  =  -------
 MECHANISM     FICTION
 Job cpu time:       0 days  9 hours 29 minutes 33.7 seconds.
 Elapsed time:       0 days  0 hours 17 minutes 57.5 seconds.
 File lengths (MBytes):  RWF=    246 Int=      0 D2E=      0 Chk=     31 Scr=      1
 Normal termination of Gaussian 16 at Thu Dec 28 10:38:49 2023.
