 Entering Gaussian System, Link 0=g16
 Input=molecule_9_1.com
 Output=molecule_9_1.log
 Initial command:
 /share/apps/g16/A03/l1.exe "/tmp/954076.tmpdir/scr/Gau-31858.inp" -scrdir="/tmp/954076.tmpdir/scr/"
 Entering Link 1 = /share/apps/g16/A03/l1.exe PID=     31861.
  
 Copyright (c) 1988,1990,1992,1993,1995,1998,2003,2009,2016,
            Gaussian, Inc.  All Rights Reserved.
  
 This is part of the Gaussian(R) 16 program.  It is based on
 the Gaussian(R) 09 system (copyright 2009, Gaussian, Inc.),
 the Gaussian(R) 03 system (copyright 2003, Gaussian, Inc.),
 the Gaussian(R) 98 system (copyright 1998, Gaussian, Inc.),
 the Gaussian(R) 94 system (copyright 1995, Gaussian, Inc.),
 the Gaussian 92(TM) system (copyright 1992, Gaussian, Inc.),
 the Gaussian 90(TM) system (copyright 1990, Gaussian, Inc.),
 the Gaussian 88(TM) system (copyright 1988, Gaussian, Inc.),
 the Gaussian 86(TM) system (copyright 1986, Carnegie Mellon
 University), and the Gaussian 82(TM) system (copyright 1983,
 Carnegie Mellon University). Gaussian is a federally registered
 trademark of Gaussian, Inc.
  
 This software contains proprietary and confidential information,
 including trade secrets, belonging to Gaussian, Inc.
  
 This software is provided under written license and may be
 used, copied, transmitted, or stored only in accord with that
 written license.
  
 The following legend is applicable only to US Government
 contracts under FAR:
  
                    RESTRICTED RIGHTS LEGEND
  
 Use, reproduction and disclosure by the US Government is
 subject to restrictions as set forth in subparagraphs (a)
 and (c) of the Commercial Computer Software - Restricted
 Rights clause in FAR 52.227-19.
  
 Gaussian, Inc.
 340 Quinnipiac St., Bldg. 40, Wallingford CT 06492
  
  
 ---------------------------------------------------------------
 Warning -- This program may not be used in any manner that
 competes with the business of Gaussian, Inc. or will provide
 assistance to any competitor of Gaussian, Inc.  The licensee
 of this program is prohibited from giving any competitor of
 Gaussian, Inc. access to this program.  By using this program,
 the user acknowledges that Gaussian, Inc. is engaged in the
 business of creating and licensing software in the field of
 computational chemistry and represents and warrants to the
 licensee that it is not a competitor of Gaussian, Inc. and that
 it will not use this program in any manner prohibited above.
 ---------------------------------------------------------------
  

 Cite this work as:
 Gaussian 16, Revision A.03,
 M. J. Frisch, G. W. Trucks, H. B. Schlegel, G. E. Scuseria, 
 M. A. Robb, J. R. Cheeseman, G. Scalmani, V. Barone, 
 G. A. Petersson, H. Nakatsuji, X. Li, M. Caricato, A. V. Marenich, 
 J. Bloino, B. G. Janesko, R. Gomperts, B. Mennucci, H. P. Hratchian, 
 J. V. Ortiz, A. F. Izmaylov, J. L. Sonnenberg, D. Williams-Young, 
 F. Ding, F. Lipparini, F. Egidi, J. Goings, B. Peng, A. Petrone, 
 T. Henderson, D. Ranasinghe, V. G. Zakrzewski, J. Gao, N. Rega, 
 G. Zheng, W. Liang, M. Hada, M. Ehara, K. Toyota, R. Fukuda, 
 J. Hasegawa, M. Ishida, T. Nakajima, Y. Honda, O. Kitao, H. Nakai, 
 T. Vreven, K. Throssell, J. A. Montgomery, Jr., J. E. Peralta, 
 F. Ogliaro, M. J. Bearpark, J. J. Heyd, E. N. Brothers, K. N. Kudin, 
 V. N. Staroverov, T. A. Keith, R. Kobayashi, J. Normand, 
 K. Raghavachari, A. P. Rendell, J. C. Burant, S. S. Iyengar, 
 J. Tomasi, M. Cossi, J. M. Millam, M. Klene, C. Adamo, R. Cammi, 
 J. W. Ochterski, R. L. Martin, K. Morokuma, O. Farkas, 
 J. B. Foresman, and D. J. Fox, Gaussian, Inc., Wallingford CT, 2016.
 
 ******************************************
 Gaussian 16:  ES64L-G16RevA.03 25-Dec-2016
                28-Dec-2023 
 ******************************************
 %nprocs=32
 Will use up to   32 processors via shared memory.
 %chk=molecule_9_1.chk
 %mem=10GB
 --------------------
 # opt b3lyp/6-31g(d)
 --------------------
 1/18=20,19=15,26=3,38=1/1,3;
 2/9=110,12=2,17=6,18=5,40=1/2;
 3/5=1,6=6,7=1,11=2,25=1,30=1,71=1,74=-5/1,2,3;
 4//1;
 5/5=2,38=5/2;
 6/7=2,8=2,9=2,10=2,28=1/1;
 7//1,2,3,16;
 1/18=20,19=15,26=3/3(2);
 2/9=110/2;
 99//99;
 2/9=110/2;
 3/5=1,6=6,7=1,11=2,25=1,30=1,71=1,74=-5/1,2,3;
 4/5=5,16=3,69=1/1;
 5/5=2,38=5/2;
 7//1,2,3,16;
 1/18=20,19=15,26=3/3(-5);
 2/9=110/2;
 6/7=2,8=2,9=2,10=2,19=2,28=1/1;
 99/9=1/99;
 ------------
 molecule_9_1
 ------------
 Symbolic Z-matrix:
 Charge =  0 Multiplicity = 1
 C                    -2.8599    1.4585    2.8511 
 C                    -3.8097    0.6263    2.037 
 C                    -3.3886    0.0626    0.8194 
 C                    -4.2817   -0.7131    0.0542 
 C                    -3.8381   -1.336    -1.244 
 C                    -2.5936   -0.6461   -1.8236 
 C                    -1.5027   -0.3898   -0.7504 
 C                    -0.4019    0.5129   -1.3694 
 C                     0.7218    0.9282   -0.3928 
 C                     1.9187    0.0098   -0.4725 
 C                     2.8632    0.0697   -1.4393 
 C                     2.845     1.1346   -2.5109 
 C                     4.0236   -0.8991   -1.4045 
 C                     5.2404   -0.2485   -0.815 
 C                     5.3229    0.021     0.4926 
 C                     6.5066    0.6631    1.093 
 C                     6.5333    0.9387    2.5616 
 O                     7.5008    0.9764    0.383 
 C                    -0.9003   -1.7241   -0.2633 
 O                    -2.0844    0.2955    0.3628 
 C                    -5.5778   -0.9516    0.5324 
 C                    -5.9952   -0.4007    1.75 
 O                    -7.2837   -0.6302    2.2274 
 C                    -5.1141    0.386     2.497 
 H                    -2.4668    2.293     2.2328 
 H                    -3.3582    1.8925    3.744 
 H                    -2.0116    0.8281    3.1915 
 H                    -3.6343   -2.4149   -1.079 
 H                    -4.6589   -1.2668   -1.991 
 H                    -2.9174    0.3255   -2.2591 
 H                    -2.184    -1.2631   -2.6534 
 H                     0.0237    0.0126   -2.2666 
 H                    -0.8844    1.4478   -1.7315 
 H                     0.3452    0.9354    0.652 
 H                     1.0385    1.9714   -0.6046 
 H                     2.027    -0.7243    0.321 
 H                     1.9259    1.0552   -3.1253 
 H                     3.718     1.0282   -3.1889 
 H                     2.8988    2.142    -2.0482 
 H                     3.7724   -1.8197   -0.8324 
 H                     4.2545   -1.224    -2.4417 
 H                     6.0618   -0.0044   -1.4781 
 H                     4.4945   -0.2366    1.1421 
 H                     7.466     1.4727    2.8423 
 H                     5.663     1.5692    2.8403 
 H                     6.4855   -0.0189    3.1213 
 H                    -1.6848   -2.3972    0.1375 
 H                    -0.188    -1.5501    0.5679 
 H                    -0.3727   -2.2432   -1.0919 
 H                    -6.2624   -1.5645   -0.0414 
 H                    -7.9473   -1.1955    1.7109 
 H                    -5.4488    0.806     3.4377 
 

 GradGradGradGradGradGradGradGradGradGradGradGradGradGradGradGradGradGrad
 Berny optimization.
 Initialization pass.
                           ----------------------------
                           !    Initial Parameters    !
                           ! (Angstroms and Degrees)  !
 --------------------------                            --------------------------
 ! Name  Definition              Value          Derivative Info.                !
 --------------------------------------------------------------------------------
 ! R1    R(1,2)                  1.5025         estimate D2E/DX2                !
 ! R2    R(1,25)                 1.1105         estimate D2E/DX2                !
 ! R3    R(1,26)                 1.1108         estimate D2E/DX2                !
 ! R4    R(1,27)                 1.1104         estimate D2E/DX2                !
 ! R5    R(2,3)                  1.4063         estimate D2E/DX2                !
 ! R6    R(2,24)                 1.4039         estimate D2E/DX2                !
 ! R7    R(3,4)                  1.4089         estimate D2E/DX2                !
 ! R8    R(3,20)                 1.4013         estimate D2E/DX2                !
 ! R9    R(4,5)                  1.5067         estimate D2E/DX2                !
 ! R10   R(4,21)                 1.4019         estimate D2E/DX2                !
 ! R11   R(5,6)                  1.5364         estimate D2E/DX2                !
 ! R12   R(5,28)                 1.1103         estimate D2E/DX2                !
 ! R13   R(5,29)                 1.112          estimate D2E/DX2                !
 ! R14   R(6,7)                  1.5516         estimate D2E/DX2                !
 ! R15   R(6,30)                 1.1129         estimate D2E/DX2                !
 ! R16   R(6,31)                 1.1122         estimate D2E/DX2                !
 ! R17   R(7,8)                  1.5523         estimate D2E/DX2                !
 ! R18   R(7,19)                 1.5429         estimate D2E/DX2                !
 ! R19   R(7,20)                 1.4308         estimate D2E/DX2                !
 ! R20   R(8,9)                  1.5456         estimate D2E/DX2                !
 ! R21   R(8,32)                 1.1119         estimate D2E/DX2                !
 ! R22   R(8,33)                 1.1126         estimate D2E/DX2                !
 ! R23   R(9,10)                 1.5108         estimate D2E/DX2                !
 ! R24   R(9,34)                 1.1106         estimate D2E/DX2                !
 ! R25   R(9,35)                 1.1106         estimate D2E/DX2                !
 ! R26   R(10,11)                1.3529         estimate D2E/DX2                !
 ! R27   R(10,36)                1.0864         estimate D2E/DX2                !
 ! R28   R(11,12)                1.5109         estimate D2E/DX2                !
 ! R29   R(11,13)                1.5121         estimate D2E/DX2                !
 ! R30   R(12,37)                1.1084         estimate D2E/DX2                !
 ! R31   R(12,38)                1.1105         estimate D2E/DX2                !
 ! R32   R(12,39)                1.1099         estimate D2E/DX2                !
 ! R33   R(13,14)                1.5005         estimate D2E/DX2                !
 ! R34   R(13,40)                1.1126         estimate D2E/DX2                !
 ! R35   R(13,41)                1.1112         estimate D2E/DX2                !
 ! R36   R(14,15)                1.3376         estimate D2E/DX2                !
 ! R37   R(14,42)                1.0835         estimate D2E/DX2                !
 ! R38   R(15,16)                1.4744         estimate D2E/DX2                !
 ! R39   R(15,43)                1.0837         estimate D2E/DX2                !
 ! R40   R(16,17)                1.4945         estimate D2E/DX2                !
 ! R41   R(16,18)                1.2612         estimate D2E/DX2                !
 ! R42   R(17,44)                1.1108         estimate D2E/DX2                !
 ! R43   R(17,45)                1.1102         estimate D2E/DX2                !
 ! R44   R(17,46)                1.1102         estimate D2E/DX2                !
 ! R45   R(19,47)                1.1087         estimate D2E/DX2                !
 ! R46   R(19,48)                1.1084         estimate D2E/DX2                !
 ! R47   R(19,49)                1.111          estimate D2E/DX2                !
 ! R48   R(21,22)                1.4001         estimate D2E/DX2                !
 ! R49   R(21,50)                1.0833         estimate D2E/DX2                !
 ! R50   R(22,23)                1.3931         estimate D2E/DX2                !
 ! R51   R(22,24)                1.3976         estimate D2E/DX2                !
 ! R52   R(23,51)                1.0133         estimate D2E/DX2                !
 ! R53   R(24,52)                1.0832         estimate D2E/DX2                !
 ! A1    A(2,1,25)             109.7742         estimate D2E/DX2                !
 ! A2    A(2,1,26)             111.6149         estimate D2E/DX2                !
 ! A3    A(2,1,27)             109.5485         estimate D2E/DX2                !
 ! A4    A(25,1,26)            108.2245         estimate D2E/DX2                !
 ! A5    A(25,1,27)            109.0801         estimate D2E/DX2                !
 ! A6    A(26,1,27)            108.5486         estimate D2E/DX2                !
 ! A7    A(1,2,3)              120.1236         estimate D2E/DX2                !
 ! A8    A(1,2,24)             120.3073         estimate D2E/DX2                !
 ! A9    A(3,2,24)             119.5591         estimate D2E/DX2                !
 ! A10   A(2,3,4)              120.0755         estimate D2E/DX2                !
 ! A11   A(2,3,20)             119.6164         estimate D2E/DX2                !
 ! A12   A(4,3,20)             120.2998         estimate D2E/DX2                !
 ! A13   A(3,4,5)              120.5951         estimate D2E/DX2                !
 ! A14   A(3,4,21)             119.6345         estimate D2E/DX2                !
 ! A15   A(5,4,21)             119.7199         estimate D2E/DX2                !
 ! A16   A(4,5,6)              112.202          estimate D2E/DX2                !
 ! A17   A(4,5,28)             109.1308         estimate D2E/DX2                !
 ! A18   A(4,5,29)             109.619          estimate D2E/DX2                !
 ! A19   A(6,5,28)             110.1028         estimate D2E/DX2                !
 ! A20   A(6,5,29)             108.4528         estimate D2E/DX2                !
 ! A21   A(28,5,29)            107.2048         estimate D2E/DX2                !
 ! A22   A(5,6,7)              112.5029         estimate D2E/DX2                !
 ! A23   A(5,6,30)             107.6961         estimate D2E/DX2                !
 ! A24   A(5,6,31)             109.308          estimate D2E/DX2                !
 ! A25   A(7,6,30)             109.3305         estimate D2E/DX2                !
 ! A26   A(7,6,31)             110.4107         estimate D2E/DX2                !
 ! A27   A(30,6,31)            107.4283         estimate D2E/DX2                !
 ! A28   A(6,7,8)              108.5913         estimate D2E/DX2                !
 ! A29   A(6,7,19)             110.4884         estimate D2E/DX2                !
 ! A30   A(6,7,20)             109.3543         estimate D2E/DX2                !
 ! A31   A(8,7,19)             110.6043         estimate D2E/DX2                !
 ! A32   A(8,7,20)             108.6637         estimate D2E/DX2                !
 ! A33   A(19,7,20)            109.1058         estimate D2E/DX2                !
 ! A34   A(7,8,9)              114.8247         estimate D2E/DX2                !
 ! A35   A(7,8,32)             109.3612         estimate D2E/DX2                !
 ! A36   A(7,8,33)             108.1118         estimate D2E/DX2                !
 ! A37   A(9,8,32)             110.6374         estimate D2E/DX2                !
 ! A38   A(9,8,33)             107.1657         estimate D2E/DX2                !
 ! A39   A(32,8,33)            106.3468         estimate D2E/DX2                !
 ! A40   A(8,9,10)             112.2911         estimate D2E/DX2                !
 ! A41   A(8,9,34)             110.4641         estimate D2E/DX2                !
 ! A42   A(8,9,35)             109.8288         estimate D2E/DX2                !
 ! A43   A(10,9,34)            108.7968         estimate D2E/DX2                !
 ! A44   A(10,9,35)            109.5747         estimate D2E/DX2                !
 ! A45   A(34,9,35)            105.6649         estimate D2E/DX2                !
 ! A46   A(9,10,11)            124.3242         estimate D2E/DX2                !
 ! A47   A(9,10,36)            116.8219         estimate D2E/DX2                !
 ! A48   A(11,10,36)           118.8335         estimate D2E/DX2                !
 ! A49   A(10,11,12)           121.9815         estimate D2E/DX2                !
 ! A50   A(10,11,13)           119.4029         estimate D2E/DX2                !
 ! A51   A(12,11,13)           118.5006         estimate D2E/DX2                !
 ! A52   A(11,12,37)           110.6499         estimate D2E/DX2                !
 ! A53   A(11,12,38)           110.8574         estimate D2E/DX2                !
 ! A54   A(11,12,39)           110.0891         estimate D2E/DX2                !
 ! A55   A(37,12,38)           107.8539         estimate D2E/DX2                !
 ! A56   A(37,12,39)           109.6519         estimate D2E/DX2                !
 ! A57   A(38,12,39)           107.6616         estimate D2E/DX2                !
 ! A58   A(11,13,14)           110.7062         estimate D2E/DX2                !
 ! A59   A(11,13,40)           111.6361         estimate D2E/DX2                !
 ! A60   A(11,13,41)           108.9859         estimate D2E/DX2                !
 ! A61   A(14,13,40)           109.8675         estimate D2E/DX2                !
 ! A62   A(14,13,41)           108.9654         estimate D2E/DX2                !
 ! A63   A(40,13,41)           106.556          estimate D2E/DX2                !
 ! A64   A(13,14,15)           121.4285         estimate D2E/DX2                !
 ! A65   A(13,14,42)           118.1656         estimate D2E/DX2                !
 ! A66   A(15,14,42)           120.405          estimate D2E/DX2                !
 ! A67   A(14,15,16)           122.366          estimate D2E/DX2                !
 ! A68   A(14,15,43)           119.3953         estimate D2E/DX2                !
 ! A69   A(16,15,43)           118.2387         estimate D2E/DX2                !
 ! A70   A(15,16,17)           119.6575         estimate D2E/DX2                !
 ! A71   A(15,16,18)           120.7834         estimate D2E/DX2                !
 ! A72   A(17,16,18)           119.558          estimate D2E/DX2                !
 ! A73   A(16,17,44)           110.6085         estimate D2E/DX2                !
 ! A74   A(16,17,45)           109.7188         estimate D2E/DX2                !
 ! A75   A(16,17,46)           109.6079         estimate D2E/DX2                !
 ! A76   A(44,17,45)           108.7694         estimate D2E/DX2                !
 ! A77   A(44,17,46)           108.8693         estimate D2E/DX2                !
 ! A78   A(45,17,46)           109.2404         estimate D2E/DX2                !
 ! A79   A(7,19,47)            111.2786         estimate D2E/DX2                !
 ! A80   A(7,19,48)            110.6037         estimate D2E/DX2                !
 ! A81   A(7,19,49)            110.7329         estimate D2E/DX2                !
 ! A82   A(47,19,48)           106.197          estimate D2E/DX2                !
 ! A83   A(47,19,49)           108.7824         estimate D2E/DX2                !
 ! A84   A(48,19,49)           109.1142         estimate D2E/DX2                !
 ! A85   A(3,20,7)             123.5238         estimate D2E/DX2                !
 ! A86   A(4,21,22)            120.3524         estimate D2E/DX2                !
 ! A87   A(4,21,50)            119.988          estimate D2E/DX2                !
 ! A88   A(22,21,50)           119.6596         estimate D2E/DX2                !
 ! A89   A(21,22,23)           120.5924         estimate D2E/DX2                !
 ! A90   A(21,22,24)           119.8917         estimate D2E/DX2                !
 ! A91   A(23,22,24)           119.5159         estimate D2E/DX2                !
 ! A92   A(22,23,51)           121.5307         estimate D2E/DX2                !
 ! A93   A(2,24,22)            120.464          estimate D2E/DX2                !
 ! A94   A(2,24,52)            120.3507         estimate D2E/DX2                !
 ! A95   A(22,24,52)           119.185          estimate D2E/DX2                !
 ! D1    D(25,1,2,3)            55.8734         estimate D2E/DX2                !
 ! D2    D(25,1,2,24)         -125.2813         estimate D2E/DX2                !
 ! D3    D(26,1,2,3)           175.8686         estimate D2E/DX2                !
 ! D4    D(26,1,2,24)           -5.2861         estimate D2E/DX2                !
 ! D5    D(27,1,2,3)           -63.8804         estimate D2E/DX2                !
 ! D6    D(27,1,2,24)          114.9649         estimate D2E/DX2                !
 ! D7    D(1,2,3,4)           -179.7439         estimate D2E/DX2                !
 ! D8    D(1,2,3,20)            -0.7886         estimate D2E/DX2                !
 ! D9    D(24,2,3,4)             1.4022         estimate D2E/DX2                !
 ! D10   D(24,2,3,20)         -179.6425         estimate D2E/DX2                !
 ! D11   D(1,2,24,22)         -179.2408         estimate D2E/DX2                !
 ! D12   D(1,2,24,52)            0.5608         estimate D2E/DX2                !
 ! D13   D(3,2,24,22)           -0.389          estimate D2E/DX2                !
 ! D14   D(3,2,24,52)          179.4126         estimate D2E/DX2                !
 ! D15   D(2,3,4,5)           -179.2761         estimate D2E/DX2                !
 ! D16   D(2,3,4,21)            -1.8668         estimate D2E/DX2                !
 ! D17   D(20,3,4,5)             1.7758         estimate D2E/DX2                !
 ! D18   D(20,3,4,21)          179.185          estimate D2E/DX2                !
 ! D19   D(2,3,20,7)           170.3204         estimate D2E/DX2                !
 ! D20   D(4,3,20,7)           -10.7267         estimate D2E/DX2                !
 ! D21   D(3,4,5,6)            -20.1621         estimate D2E/DX2                !
 ! D22   D(3,4,5,28)           102.1482         estimate D2E/DX2                !
 ! D23   D(3,4,5,29)          -140.721          estimate D2E/DX2                !
 ! D24   D(21,4,5,6)           162.4308         estimate D2E/DX2                !
 ! D25   D(21,4,5,28)          -75.2589         estimate D2E/DX2                !
 ! D26   D(21,4,5,29)           41.872          estimate D2E/DX2                !
 ! D27   D(3,4,21,22)            1.3219         estimate D2E/DX2                !
 ! D28   D(3,4,21,50)         -178.7171         estimate D2E/DX2                !
 ! D29   D(5,4,21,22)          178.7541         estimate D2E/DX2                !
 ! D30   D(5,4,21,50)           -1.285          estimate D2E/DX2                !
 ! D31   D(4,5,6,7)             45.2799         estimate D2E/DX2                !
 ! D32   D(4,5,6,30)           -75.2691         estimate D2E/DX2                !
 ! D33   D(4,5,6,31)           168.3133         estimate D2E/DX2                !
 ! D34   D(28,5,6,7)           -76.4768         estimate D2E/DX2                !
 ! D35   D(28,5,6,30)          162.9743         estimate D2E/DX2                !
 ! D36   D(28,5,6,31)           46.5566         estimate D2E/DX2                !
 ! D37   D(29,5,6,7)           166.5112         estimate D2E/DX2                !
 ! D38   D(29,5,6,30)           45.9622         estimate D2E/DX2                !
 ! D39   D(29,5,6,31)          -70.4554         estimate D2E/DX2                !
 ! D40   D(5,6,7,8)           -170.5973         estimate D2E/DX2                !
 ! D41   D(5,6,7,19)            67.9332         estimate D2E/DX2                !
 ! D42   D(5,6,7,20)           -52.1724         estimate D2E/DX2                !
 ! D43   D(30,6,7,8)           -50.9934         estimate D2E/DX2                !
 ! D44   D(30,6,7,19)         -172.4629         estimate D2E/DX2                !
 ! D45   D(30,6,7,20)           67.4315         estimate D2E/DX2                !
 ! D46   D(31,6,7,8)            66.9892         estimate D2E/DX2                !
 ! D47   D(31,6,7,19)          -54.4803         estimate D2E/DX2                !
 ! D48   D(31,6,7,20)         -174.5859         estimate D2E/DX2                !
 ! D49   D(6,7,8,9)            176.5924         estimate D2E/DX2                !
 ! D50   D(6,7,8,32)           -58.3664         estimate D2E/DX2                !
 ! D51   D(6,7,8,33)            57.0255         estimate D2E/DX2                !
 ! D52   D(19,7,8,9)           -62.0092         estimate D2E/DX2                !
 ! D53   D(19,7,8,32)           63.032          estimate D2E/DX2                !
 ! D54   D(19,7,8,33)          178.4239         estimate D2E/DX2                !
 ! D55   D(20,7,8,9)            57.7318         estimate D2E/DX2                !
 ! D56   D(20,7,8,32)         -177.227          estimate D2E/DX2                !
 ! D57   D(20,7,8,33)          -61.835          estimate D2E/DX2                !
 ! D58   D(6,7,19,47)          -57.0505         estimate D2E/DX2                !
 ! D59   D(6,7,19,48)         -174.8396         estimate D2E/DX2                !
 ! D60   D(6,7,19,49)           64.0723         estimate D2E/DX2                !
 ! D61   D(8,7,19,47)         -177.3209         estimate D2E/DX2                !
 ! D62   D(8,7,19,48)           64.89           estimate D2E/DX2                !
 ! D63   D(8,7,19,49)          -56.1982         estimate D2E/DX2                !
 ! D64   D(20,7,19,47)          63.2042         estimate D2E/DX2                !
 ! D65   D(20,7,19,48)         -54.5849         estimate D2E/DX2                !
 ! D66   D(20,7,19,49)        -175.6731         estimate D2E/DX2                !
 ! D67   D(6,7,20,3)            35.6092         estimate D2E/DX2                !
 ! D68   D(8,7,20,3)           153.989          estimate D2E/DX2                !
 ! D69   D(19,7,20,3)          -85.3404         estimate D2E/DX2                !
 ! D70   D(7,8,9,10)            94.7872         estimate D2E/DX2                !
 ! D71   D(7,8,9,34)           -26.8591         estimate D2E/DX2                !
 ! D72   D(7,8,9,35)          -143.022          estimate D2E/DX2                !
 ! D73   D(32,8,9,10)          -29.5833         estimate D2E/DX2                !
 ! D74   D(32,8,9,34)         -151.2297         estimate D2E/DX2                !
 ! D75   D(32,8,9,35)           92.6075         estimate D2E/DX2                !
 ! D76   D(33,8,9,10)         -145.1212         estimate D2E/DX2                !
 ! D77   D(33,8,9,34)           93.2324         estimate D2E/DX2                !
 ! D78   D(33,8,9,35)          -22.9305         estimate D2E/DX2                !
 ! D79   D(8,9,10,11)           78.9881         estimate D2E/DX2                !
 ! D80   D(8,9,10,36)         -102.6806         estimate D2E/DX2                !
 ! D81   D(34,9,10,11)        -158.4182         estimate D2E/DX2                !
 ! D82   D(34,9,10,36)          19.913          estimate D2E/DX2                !
 ! D83   D(35,9,10,11)         -43.3467         estimate D2E/DX2                !
 ! D84   D(35,9,10,36)         134.9845         estimate D2E/DX2                !
 ! D85   D(9,10,11,12)           3.4318         estimate D2E/DX2                !
 ! D86   D(9,10,11,13)         179.4738         estimate D2E/DX2                !
 ! D87   D(36,10,11,12)       -174.8682         estimate D2E/DX2                !
 ! D88   D(36,10,11,13)          1.1739         estimate D2E/DX2                !
 ! D89   D(10,11,12,37)        -61.9915         estimate D2E/DX2                !
 ! D90   D(10,11,12,38)        178.3908         estimate D2E/DX2                !
 ! D91   D(10,11,12,39)         59.375          estimate D2E/DX2                !
 ! D92   D(13,11,12,37)        121.932          estimate D2E/DX2                !
 ! D93   D(13,11,12,38)          2.3144         estimate D2E/DX2                !
 ! D94   D(13,11,12,39)       -116.7015         estimate D2E/DX2                !
 ! D95   D(10,11,13,14)        -99.2506         estimate D2E/DX2                !
 ! D96   D(10,11,13,40)         23.4865         estimate D2E/DX2                !
 ! D97   D(10,11,13,41)        140.9161         estimate D2E/DX2                !
 ! D98   D(12,11,13,14)         76.9295         estimate D2E/DX2                !
 ! D99   D(12,11,13,40)       -160.3334         estimate D2E/DX2                !
 ! D100  D(12,11,13,41)        -42.9038         estimate D2E/DX2                !
 ! D101  D(11,13,14,15)         72.2281         estimate D2E/DX2                !
 ! D102  D(11,13,14,42)       -108.1193         estimate D2E/DX2                !
 ! D103  D(40,13,14,15)        -51.5312         estimate D2E/DX2                !
 ! D104  D(40,13,14,42)        128.1214         estimate D2E/DX2                !
 ! D105  D(41,13,14,15)       -167.9263         estimate D2E/DX2                !
 ! D106  D(41,13,14,42)         11.7263         estimate D2E/DX2                !
 ! D107  D(13,14,15,16)       -179.8173         estimate D2E/DX2                !
 ! D108  D(13,14,15,43)          0.0826         estimate D2E/DX2                !
 ! D109  D(42,14,15,16)          0.5378         estimate D2E/DX2                !
 ! D110  D(42,14,15,43)       -179.5623         estimate D2E/DX2                !
 ! D111  D(14,15,16,17)        179.8906         estimate D2E/DX2                !
 ! D112  D(14,15,16,18)         -0.4945         estimate D2E/DX2                !
 ! D113  D(43,15,16,17)         -0.0104         estimate D2E/DX2                !
 ! D114  D(43,15,16,18)        179.6045         estimate D2E/DX2                !
 ! D115  D(15,16,17,44)       -176.8965         estimate D2E/DX2                !
 ! D116  D(15,16,17,45)        -56.8996         estimate D2E/DX2                !
 ! D117  D(15,16,17,46)         63.0537         estimate D2E/DX2                !
 ! D118  D(18,16,17,44)          3.4838         estimate D2E/DX2                !
 ! D119  D(18,16,17,45)        123.4808         estimate D2E/DX2                !
 ! D120  D(18,16,17,46)       -116.5659         estimate D2E/DX2                !
 ! D121  D(4,21,22,23)         179.7504         estimate D2E/DX2                !
 ! D122  D(4,21,22,24)          -0.3136         estimate D2E/DX2                !
 ! D123  D(50,21,22,23)         -0.2107         estimate D2E/DX2                !
 ! D124  D(50,21,22,24)        179.7253         estimate D2E/DX2                !
 ! D125  D(21,22,23,51)         -0.0722         estimate D2E/DX2                !
 ! D126  D(24,22,23,51)        179.9916         estimate D2E/DX2                !
 ! D127  D(21,22,24,2)          -0.1568         estimate D2E/DX2                !
 ! D128  D(21,22,24,52)       -179.9607         estimate D2E/DX2                !
 ! D129  D(23,22,24,2)         179.7798         estimate D2E/DX2                !
 ! D130  D(23,22,24,52)         -0.0241         estimate D2E/DX2                !
 --------------------------------------------------------------------------------
 Trust Radius=3.00D-01 FncErr=1.00D-07 GrdErr=1.00D-06 EigMax=2.50D+02 EigMin=1.00D-04
 Number of steps in this run=    288 maximum allowed number of steps=    312.
 GradGradGradGradGradGradGradGradGradGradGradGradGradGradGradGradGradGrad

 Stoichiometry    C21H28O3
 Framework group  C1[X(C21H28O3)]
 Deg. of freedom   150
 Full point group                 C1      NOp   1
 Largest Abelian subgroup         C1      NOp   1
 Largest concise Abelian subgroup C1      NOp   1
                         Standard orientation:                         
 ---------------------------------------------------------------------
 Center     Atomic      Atomic             Coordinates (Angstroms)
 Number     Number       Type             X           Y           Z
 ---------------------------------------------------------------------
      1          6           0        2.792289    2.754292    0.912301
      2          6           0        3.718946    1.672499    0.434317
      3          6           0        3.226406    0.378021    0.190675
      4          6           0        4.097269   -0.636970   -0.252337
      5          6           0        3.579076   -2.023725   -0.532507
      6          6           0        2.237454   -2.294260    0.165734
      7          6           0        1.237951   -1.118020    0.007733
      8          6           0        0.019513   -1.376056    0.934349
      9          6           0       -1.033500   -0.244783    0.951856
     10          6           0       -2.161470   -0.496732   -0.021071
     11          6           0       -3.195704   -1.337461    0.211106
     12          6           0       -3.358448   -2.061544    1.527118
     13          6           0       -4.272798   -1.496788   -0.838081
     14          6           0       -5.472521   -0.662388   -0.497738
     15          6           0       -5.449604    0.670375   -0.609420
     16          6           0       -6.614801    1.510446   -0.276983
     17          6           0       -6.521586    2.994957   -0.421869
     18          8           0       -7.692587    0.990684    0.121662
     19          6           0        0.784901   -0.987957   -1.461395
     20          8           0        1.870986    0.099735    0.412164
     21          6           0        5.447122   -0.339043   -0.485939
     22          6           0        5.936934    0.952067   -0.254897
     23          8           0        7.278501    1.252320   -0.480415
     24          6           0        5.075435    1.951923    0.204833
     25          1           0        2.281487    2.427486    1.842619
     26          1           0        3.340073    3.696003    1.129191
     27          1           0        2.029182    2.961095    0.132693
     28          1           0        3.472144   -2.157480   -1.629530
     29          1           0        4.317533   -2.776580   -0.179800
     30          1           0        2.445633   -2.458116    1.246625
     31          1           0        1.797250   -3.233805   -0.234896
     32          1           0       -0.451617   -2.345829    0.662356
     33          1           0        0.394943   -1.491360    1.975367
     34          1           0       -0.560535    0.729770    0.706830
     35          1           0       -1.445097   -0.129063    1.976855
     36          1           0       -2.139110    0.061589   -0.952764
     37          1           0       -2.498793   -2.736691    1.710709
     38          1           0       -4.281884   -2.678309    1.527481
     39          1           0       -3.442092   -1.329545    2.357192
     40          1           0       -3.900911   -1.228538   -1.851810
     41          1           0       -4.576950   -2.564486   -0.884681
     42          1           0       -6.369187   -1.169155   -0.161341
     43          1           0       -4.546290    1.159812   -0.954282
     44          1           0       -7.460127    3.480865   -0.079943
     45          1           0       -5.677602    3.378687    0.188923
     46          1           0       -6.350066    3.255254   -1.487408
     47          1           0        1.651588   -0.851086   -2.139086
     48          1           0        0.144230   -0.093289   -1.594249
     49          1           0        0.220446   -1.890237   -1.780276
     50          1           0        6.117243   -1.110064   -0.846542
     51          1           0        7.929727    0.551083   -0.813390
     52          1           0        5.466405    2.946958    0.379156
 ---------------------------------------------------------------------
 Rotational constants (GHZ):           0.5296051           0.0754528           0.0691412
 Standard basis: 6-31G(d) (6D, 7F)
 There are   416 symmetry adapted cartesian basis functions of A   symmetry.
 There are   416 symmetry adapted basis functions of A   symmetry.
   416 basis functions,   784 primitive gaussians,   416 cartesian basis functions
    89 alpha electrons       89 beta electrons
       nuclear repulsion energy      1959.4826199461 Hartrees.
 NAtoms=   52 NActive=   52 NUniq=   52 SFac= 1.00D+00 NAtFMM=   60 NAOKFM=F Big=F
 Integral buffers will be    131072 words long.
 Raffenetti 2 integral format.
 Two-electron integral symmetry is turned on.
 One-electron integrals computed using PRISM.
 NBasis=   416 RedAO= T EigKep=  3.51D-04  NBF=   416
 NBsUse=   416 1.00D-06 EigRej= -1.00D+00 NBFU=   416
 ExpMin= 1.61D-01 ExpMax= 5.48D+03 ExpMxC= 8.25D+02 IAcc=3 IRadAn=         5 AccDes= 0.00D+00
 Harris functional with IExCor=  402 and IRadAn=       5 diagonalized for initial guess.
 HarFok:  IExCor=  402 AccDes= 0.00D+00 IRadAn=         5 IDoV= 1 UseB2=F ITyADJ=14
 ICtDFT=  3500011 ScaDFX=  1.000000  1.000000  1.000000  1.000000
 FoFCou: FMM=F IPFlag=           0 FMFlag=      100000 FMFlg1=           0
         NFxFlg=           0 DoJE=T BraDBF=F KetDBF=T FulRan=T
         wScrn=  0.000000 ICntrl=       500 IOpCl=  0 I1Cent=   200000004 NGrid=           0
         NMat0=    1 NMatS0=      1 NMatT0=    0 NMatD0=    1 NMtDS0=    0 NMtDT0=    0
 Petite list used in FoFCou.
 Requested convergence on RMS density matrix=1.00D-08 within 128 cycles.
 Requested convergence on MAX density matrix=1.00D-06.
 Requested convergence on             energy=1.00D-06.
 No special actions if energy rises.
 Integral accuracy reduced to 1.0D-05 until final iterations.
 Initial convergence to 1.0D-05 achieved.  Increase integral accuracy.
 SCF Done:  E(RB3LYP) =  -1042.71714451     A.U. after   15 cycles
            NFock= 15  Conv=0.48D-08     -V/T= 2.0102

 **********************************************************************

            Population analysis using the SCF density.

 **********************************************************************

 Orbital symmetries:
       Occupied  (A) (A) (A) (A) (A) (A) (A) (A) (A) (A) (A) (A)
                 (A) (A) (A) (A) (A) (A) (A) (A) (A) (A) (A) (A)
                 (A) (A) (A) (A) (A) (A) (A) (A) (A) (A) (A) (A)
                 (A) (A) (A) (A) (A) (A) (A) (A) (A) (A) (A) (A)
                 (A) (A) (A) (A) (A) (A) (A) (A) (A) (A) (A) (A)
                 (A) (A) (A) (A) (A) (A) (A) (A) (A) (A) (A) (A)
                 (A) (A) (A) (A) (A) (A) (A) (A) (A) (A) (A) (A)
                 (A) (A) (A) (A) (A)
       Virtual   (A) (A) (A) (A) (A) (A) (A) (A) (A) (A) (A) (A)
                 (A) (A) (A) (A) (A) (A) (A) (A) (A) (A) (A) (A)
                 (A) (A) (A) (A) (A) (A) (A) (A) (A) (A) (A) (A)
                 (A) (A) (A) (A) (A) (A) (A) (A) (A) (A) (A) (A)
                 (A) (A) (A) (A) (A) (A) (A) (A) (A) (A) (A) (A)
                 (A) (A) (A) (A) (A) (A) (A) (A) (A) (A) (A) (A)
                 (A) (A) (A) (A) (A) (A) (A) (A) (A) (A) (A) (A)
                 (A) (A) (A) (A) (A) (A) (A) (A) (A) (A) (A) (A)
                 (A) (A) (A) (A) (A) (A) (A) (A) (A) (A) (A) (A)
                 (A) (A) (A) (A) (A) (A) (A) (A) (A) (A) (A) (A)
                 (A) (A) (A) (A) (A) (A) (A) (A) (A) (A) (A) (A)
                 (A) (A) (A) (A) (A) (A) (A) (A) (A) (A) (A) (A)
                 (A) (A) (A) (A) (A) (A) (A) (A) (A) (A) (A) (A)
                 (A) (A) (A) (A) (A) (A) (A) (A) (A) (A) (A) (A)
                 (A) (A) (A) (A) (A) (A) (A) (A) (A) (A) (A) (A)
                 (A) (A) (A) (A) (A) (A) (A) (A) (A) (A) (A) (A)
                 (A) (A) (A) (A) (A) (A) (A) (A) (A) (A) (A) (A)
                 (A) (A) (A) (A) (A) (A) (A) (A) (A) (A) (A) (A)
                 (A) (A) (A) (A) (A) (A) (A) (A) (A) (A) (A) (A)
                 (A) (A) (A) (A) (A) (A) (A) (A) (A) (A) (A) (A)
                 (A) (A) (A) (A) (A) (A) (A) (A) (A) (A) (A) (A)
                 (A) (A) (A) (A) (A) (A) (A) (A) (A) (A) (A) (A)
                 (A) (A) (A) (A) (A) (A) (A) (A) (A) (A) (A) (A)
                 (A) (A) (A) (A) (A) (A) (A) (A) (A) (A) (A) (A)
                 (A) (A) (A) (A) (A) (A) (A) (A) (A) (A) (A) (A)
                 (A) (A) (A) (A) (A) (A) (A) (A) (A) (A) (A) (A)
                 (A) (A) (A) (A) (A) (A) (A) (A) (A) (A) (A) (A)
                 (A) (A) (A)
 The electronic state is 1-A.
 Alpha  occ. eigenvalues --  -19.16477 -19.16150 -19.11949 -10.26648 -10.25380
 Alpha  occ. eigenvalues --  -10.24069 -10.23502 -10.20592 -10.19913 -10.19555
 Alpha  occ. eigenvalues --  -10.19428 -10.19281 -10.19125 -10.19048 -10.19039
 Alpha  occ. eigenvalues --  -10.18998 -10.18895 -10.18788 -10.18606 -10.18216
 Alpha  occ. eigenvalues --  -10.18007 -10.17941 -10.17904 -10.17853  -1.04345
 Alpha  occ. eigenvalues --   -1.02390  -1.00049  -0.84774  -0.83378  -0.81654
 Alpha  occ. eigenvalues --   -0.79340  -0.77635  -0.75251  -0.74740  -0.73337
 Alpha  occ. eigenvalues --   -0.70225  -0.69416  -0.68490  -0.67706  -0.64559
 Alpha  occ. eigenvalues --   -0.62475  -0.60344  -0.58835  -0.57996  -0.54731
 Alpha  occ. eigenvalues --   -0.52726  -0.51937  -0.51271  -0.49952  -0.48745
 Alpha  occ. eigenvalues --   -0.47420  -0.46740  -0.45667  -0.45347  -0.45049
 Alpha  occ. eigenvalues --   -0.43582  -0.43531  -0.43479  -0.42361  -0.41673
 Alpha  occ. eigenvalues --   -0.41489  -0.40946  -0.40411  -0.39795  -0.39671
 Alpha  occ. eigenvalues --   -0.38985  -0.38620  -0.38196  -0.37807  -0.37735
 Alpha  occ. eigenvalues --   -0.37335  -0.36647  -0.36261  -0.36154  -0.36040
 Alpha  occ. eigenvalues --   -0.35649  -0.35180  -0.34340  -0.33571  -0.32349
 Alpha  occ. eigenvalues --   -0.31837  -0.31378  -0.29310  -0.27964  -0.26206
 Alpha  occ. eigenvalues --   -0.23605  -0.23238  -0.22934  -0.19215
 Alpha virt. eigenvalues --   -0.05440   0.00260   0.01657   0.02885   0.05580
 Alpha virt. eigenvalues --    0.06040   0.07246   0.08961   0.09272   0.09917
 Alpha virt. eigenvalues --    0.10662   0.11147   0.11331   0.11893   0.12059
 Alpha virt. eigenvalues --    0.13164   0.13831   0.14325   0.14833   0.15029
 Alpha virt. eigenvalues --    0.15146   0.15422   0.16310   0.16603   0.17551
 Alpha virt. eigenvalues --    0.18149   0.18391   0.18719   0.19009   0.19536
 Alpha virt. eigenvalues --    0.20049   0.21033   0.21453   0.21847   0.22489
 Alpha virt. eigenvalues --    0.22630   0.22851   0.23540   0.24036   0.24171
 Alpha virt. eigenvalues --    0.25336   0.25785   0.26828   0.27617   0.28771
 Alpha virt. eigenvalues --    0.29364   0.30148   0.30444   0.31037   0.33892
 Alpha virt. eigenvalues --    0.34499   0.34776   0.36256   0.38837   0.39194
 Alpha virt. eigenvalues --    0.40408   0.41705   0.46315   0.47997   0.48950
 Alpha virt. eigenvalues --    0.49717   0.50327   0.51502   0.52193   0.52371
 Alpha virt. eigenvalues --    0.52692   0.53892   0.54105   0.54837   0.55279
 Alpha virt. eigenvalues --    0.55932   0.56229   0.56627   0.57087   0.57583
 Alpha virt. eigenvalues --    0.58312   0.59531   0.59699   0.60173   0.60893
 Alpha virt. eigenvalues --    0.61868   0.62450   0.62985   0.63421   0.63973
 Alpha virt. eigenvalues --    0.64492   0.64771   0.65652   0.65820   0.66644
 Alpha virt. eigenvalues --    0.67254   0.68311   0.69542   0.70838   0.71415
 Alpha virt. eigenvalues --    0.71567   0.72354   0.72884   0.73879   0.74696
 Alpha virt. eigenvalues --    0.76294   0.76889   0.77094   0.77738   0.77977
 Alpha virt. eigenvalues --    0.78189   0.79683   0.80300   0.81783   0.82135
 Alpha virt. eigenvalues --    0.83044   0.83551   0.83912   0.84360   0.84880
 Alpha virt. eigenvalues --    0.85528   0.85587   0.85857   0.85942   0.87183
 Alpha virt. eigenvalues --    0.87924   0.88498   0.88785   0.88941   0.89532
 Alpha virt. eigenvalues --    0.90082   0.90553   0.90793   0.91315   0.92160
 Alpha virt. eigenvalues --    0.92612   0.93290   0.93607   0.93952   0.94635
 Alpha virt. eigenvalues --    0.95135   0.95704   0.96140   0.97177   0.97235
 Alpha virt. eigenvalues --    0.98311   0.98466   0.99157   1.00383   1.01600
 Alpha virt. eigenvalues --    1.02454   1.03326   1.03449   1.04411   1.05020
 Alpha virt. eigenvalues --    1.09120   1.09856   1.10693   1.11230   1.14856
 Alpha virt. eigenvalues --    1.15843   1.17400   1.18769   1.19486   1.21184
 Alpha virt. eigenvalues --    1.21633   1.22785   1.25006   1.26921   1.27256
 Alpha virt. eigenvalues --    1.29856   1.30739   1.34039   1.35139   1.36392
 Alpha virt. eigenvalues --    1.36760   1.37574   1.38110   1.38369   1.38813
 Alpha virt. eigenvalues --    1.39595   1.41536   1.43395   1.45074   1.45690
 Alpha virt. eigenvalues --    1.47557   1.47914   1.48846   1.52173   1.52748
 Alpha virt. eigenvalues --    1.55879   1.56664   1.60198   1.64780   1.65061
 Alpha virt. eigenvalues --    1.65479   1.67090   1.69467   1.70611   1.72855
 Alpha virt. eigenvalues --    1.73357   1.74755   1.75221   1.75977   1.77827
 Alpha virt. eigenvalues --    1.78783   1.79539   1.81097   1.81247   1.81824
 Alpha virt. eigenvalues --    1.82581   1.83121   1.83629   1.84443   1.85350
 Alpha virt. eigenvalues --    1.86873   1.87632   1.88169   1.89156   1.89869
 Alpha virt. eigenvalues --    1.91515   1.91615   1.92165   1.92937   1.93596
 Alpha virt. eigenvalues --    1.93815   1.94401   1.96226   1.97171   1.97834
 Alpha virt. eigenvalues --    1.99106   2.00492   2.02644   2.02906   2.03843
 Alpha virt. eigenvalues --    2.04902   2.05240   2.06556   2.07360   2.07752
 Alpha virt. eigenvalues --    2.09396   2.10023   2.12902   2.13269   2.14572
 Alpha virt. eigenvalues --    2.15352   2.17173   2.18002   2.19679   2.20324
 Alpha virt. eigenvalues --    2.21042   2.22541   2.23824   2.25539   2.26425
 Alpha virt. eigenvalues --    2.27249   2.28436   2.29105   2.29351   2.30707
 Alpha virt. eigenvalues --    2.31728   2.32152   2.33216   2.34374   2.35165
 Alpha virt. eigenvalues --    2.35744   2.36131   2.37171   2.38964   2.39539
 Alpha virt. eigenvalues --    2.41769   2.42276   2.43802   2.44437   2.46735
 Alpha virt. eigenvalues --    2.48407   2.50820   2.52442   2.53882   2.54857
 Alpha virt. eigenvalues --    2.56629   2.57799   2.59975   2.61852   2.62575
 Alpha virt. eigenvalues --    2.66493   2.68601   2.70323   2.72194   2.74162
 Alpha virt. eigenvalues --    2.75863   2.77360   2.78906   2.80047   2.81631
 Alpha virt. eigenvalues --    2.85259   2.86191   2.86924   2.88780   2.93082
 Alpha virt. eigenvalues --    2.96222   2.99076   3.01317   3.04303   3.07186
 Alpha virt. eigenvalues --    3.12672   3.26511   3.43554   3.94693   3.95157
 Alpha virt. eigenvalues --    4.09854   4.10795   4.11991   4.13175   4.16971
 Alpha virt. eigenvalues --    4.20204   4.22371   4.24334   4.24781   4.29916
 Alpha virt. eigenvalues --    4.30163   4.34009   4.38443   4.40588   4.43700
 Alpha virt. eigenvalues --    4.48477   4.50919   4.54199   4.56187   4.60139
 Alpha virt. eigenvalues --    4.77077   4.86628
          Condensed to atoms (all electrons):
 Mulliken charges:
               1
     1  C   -0.512356
     2  C    0.118854
     3  C    0.271566
     4  C    0.131888
     5  C   -0.357590
     6  C   -0.288159
     7  C    0.329533
     8  C   -0.262117
     9  C   -0.314607
    10  C   -0.170442
    11  C    0.187759
    12  C   -0.520527
    13  C   -0.393232
    14  C   -0.063456
    15  C   -0.161509
    16  C    0.432261
    17  C   -0.530735
    18  O   -0.484627
    19  C   -0.457134
    20  O   -0.583113
    21  C   -0.267495
    22  C    0.394787
    23  O   -0.689734
    24  C   -0.229894
    25  H    0.163844
    26  H    0.147681
    27  H    0.160010
    28  H    0.153310
    29  H    0.147083
    30  H    0.143027
    31  H    0.133090
    32  H    0.139968
    33  H    0.135016
    34  H    0.158263
    35  H    0.140637
    36  H    0.117125
    37  H    0.163618
    38  H    0.148577
    39  H    0.169165
    40  H    0.159959
    41  H    0.141977
    42  H    0.169676
    43  H    0.125703
    44  H    0.179982
    45  H    0.164503
    46  H    0.166878
    47  H    0.151165
    48  H    0.153337
    49  H    0.141438
    50  H    0.106334
    51  H    0.406350
    52  H    0.132366
 Sum of Mulliken charges =  -0.00000
 Mulliken charges with hydrogens summed into heavy atoms:
               1
     1  C   -0.040822
     2  C    0.118854
     3  C    0.271566
     4  C    0.131888
     5  C   -0.057198
     6  C   -0.012043
     7  C    0.329533
     8  C    0.012867
     9  C   -0.015707
    10  C   -0.053316
    11  C    0.187759
    12  C   -0.039167
    13  C   -0.091296
    14  C    0.106219
    15  C   -0.035806
    16  C    0.432261
    17  C   -0.019373
    18  O   -0.484627
    19  C   -0.011194
    20  O   -0.583113
    21  C   -0.161161
    22  C    0.394787
    23  O   -0.283385
    24  C   -0.097528
 Electronic spatial extent (au):  <R**2>=          14852.5732
 Charge=             -0.0000 electrons
 Dipole moment (field-independent basis, Debye):
    X=              3.0467    Y=             -2.2305    Z=             -1.4040  Tot=              4.0285
 Quadrupole moment (field-independent basis, Debye-Ang):
   XX=           -175.8348   YY=           -134.4124   ZZ=           -142.9546
   XY=            -10.3567   XZ=             -0.2856   YZ=              0.0709
 Traceless Quadrupole moment (field-independent basis, Debye-Ang):
   XX=            -24.7676   YY=             16.6549   ZZ=              8.1127
   XY=            -10.3567   XZ=             -0.2856   YZ=              0.0709
 Octapole moment (field-independent basis, Debye-Ang**2):
  XXX=            501.0780  YYY=             17.2657  ZZZ=              1.4216  XYY=            -36.6732
  XXY=            -93.3079  XXZ=            -79.3103  XZZ=             -6.8416  YZZ=              1.9103
  YYZ=              2.4735  XYZ=             20.2143
 Hexadecapole moment (field-independent basis, Debye-Ang**3):
 XXXX=         -19004.3930 YYYY=          -2318.1950 ZZZZ=           -668.4086 XXXY=           -384.8042
 XXXZ=           -152.3918 YYYX=            -54.0205 YYYZ=              7.9491 ZZZX=            -20.8267
 ZZZY=             -4.1806 XXYY=          -2996.9554 XXZZ=          -2860.9271 YYZZ=           -509.3353
 XXYZ=             -1.9417 YYXZ=             33.2827 ZZXY=            -23.0304
 N-N= 1.959482619946D+03 E-N=-6.340930400391D+03  KE= 1.032184517846D+03
 Calling FoFJK, ICntrl=      2127 FMM=F ISym2X=0 I1Cent= 0 IOpClX= 0 NMat=1 NMatS=1 NMatT=0.
 ***** Axes restored to original set *****
 -------------------------------------------------------------------
 Center     Atomic                   Forces (Hartrees/Bohr)
 Number     Number              X              Y              Z
 -------------------------------------------------------------------
      1        6           0.004475220    0.005690745    0.003906277
      2        6          -0.000679595    0.000011623    0.002647093
      3        6           0.001816994   -0.012258330   -0.021378976
      4        6          -0.001977464   -0.000972285    0.005425412
      5        6          -0.000473196   -0.004457590   -0.006636511
      6        6          -0.002463313    0.002031278   -0.007126316
      7        6          -0.005347035   -0.014859761   -0.016759067
      8        6          -0.010786369    0.014850101    0.000239358
      9        6           0.007465981    0.001328020    0.009459696
     10        6           0.008746057    0.006590130   -0.008613040
     11        6          -0.014485836   -0.004947446    0.016523937
     12        6           0.006231601    0.000411311   -0.005536268
     13        6           0.000186491   -0.011397834   -0.013843435
     14        6           0.001170480   -0.004135349    0.002379376
     15        6           0.005081800    0.001924123    0.003543199
     16        6           0.047033334    0.013554231   -0.037641407
     17        6           0.000780613    0.004794882    0.015456826
     18        8          -0.035898292   -0.011273790    0.023964518
     19        6           0.000921329   -0.006094913    0.006245586
     20        8          -0.005581437    0.016200486    0.019715299
     21        6           0.007143243    0.008750197    0.007620803
     22        6          -0.022206777   -0.019096845   -0.016834562
     23        8          -0.014215013   -0.002182793    0.006077106
     24        6          -0.001011816   -0.002746515   -0.005220211
     25        1           0.000816852   -0.007192425    0.007290128
     26        1           0.004700817   -0.004826437   -0.008438779
     27        1          -0.003673940    0.008800913   -0.002480917
     28        1          -0.002362152    0.006144039   -0.002985331
     29        1           0.006323098   -0.003545953    0.006564827
     30        1           0.005868774   -0.007085570    0.003909473
     31        1          -0.001827116    0.007181964    0.007307575
     32        1          -0.005123768    0.002499011    0.009872433
     33        1          -0.000012645   -0.009619796    0.002204458
     34        1          -0.000214998    0.001016225   -0.010500448
     35        1          -0.003339873   -0.007807599   -0.000253381
     36        1          -0.000530190   -0.003919818   -0.001176305
     37        1           0.006990403    0.004881490    0.003596477
     38        1          -0.008329457    0.002176547    0.004914558
     39        1          -0.002854729   -0.005896879   -0.006956962
     40        1          -0.000197089    0.010001006   -0.004013899
     41        1          -0.001801247    0.000341713    0.007681820
     42        1           0.003901194    0.003439999    0.001518885
     43        1          -0.002498785   -0.000031628    0.003187061
     44        1          -0.009748108   -0.006475256   -0.004891192
     45        1           0.004988271   -0.007147415    0.001518542
     46        1          -0.002685180    0.008044001   -0.001340656
     47        1           0.005473594    0.004989359   -0.004440802
     48        1          -0.004746636   -0.001123144   -0.008301545
     49        1          -0.004372634    0.004358691    0.008280877
     50        1          -0.001671512   -0.001528614   -0.002558727
     51        1           0.040916552    0.019548159    0.005672482
     52        1           0.000083503    0.001063740    0.001204656
 -------------------------------------------------------------------
 Cartesian Forces:  Max     0.047033334 RMS     0.010045349

 GradGradGradGradGradGradGradGradGradGradGradGradGradGradGradGradGradGrad
 Berny optimization.
 FormGI is forming the generalized inverse of G from B-inverse, IUseBI=4.
 Internal  Forces:  Max     0.044589157 RMS     0.006423748
 Search for a local minimum.
 Step number   1 out of a maximum of  288
 All quantities printed in internal units (Hartrees-Bohrs-Radians)
 Mixed Optimization -- RFO/linear search
 Second derivative matrix not updated -- first step.
 ITU=  0
     Eigenvalues ---    0.00230   0.00230   0.00230   0.00515   0.00606
     Eigenvalues ---    0.00622   0.00624   0.00733   0.00760   0.00839
     Eigenvalues ---    0.00896   0.00947   0.01104   0.01163   0.01418
     Eigenvalues ---    0.01479   0.01522   0.01641   0.01644   0.01783
     Eigenvalues ---    0.01951   0.02019   0.02036   0.02043   0.02074
     Eigenvalues ---    0.02077   0.02098   0.02712   0.02914   0.03201
     Eigenvalues ---    0.03324   0.03665   0.04007   0.04695   0.04714
     Eigenvalues ---    0.04966   0.05092   0.05288   0.05391   0.05417
     Eigenvalues ---    0.05518   0.05774   0.06518   0.07207   0.07251
     Eigenvalues ---    0.07286   0.07433   0.07452   0.07524   0.07752
     Eigenvalues ---    0.08228   0.08632   0.09081   0.09307   0.09382
     Eigenvalues ---    0.09730   0.11464   0.12449   0.12830   0.13129
     Eigenvalues ---    0.14355   0.15996   0.16000   0.16000   0.16000
     Eigenvalues ---    0.16000   0.16000   0.16000   0.16000   0.16000
     Eigenvalues ---    0.16000   0.16000   0.16000   0.16000   0.16000
     Eigenvalues ---    0.16000   0.16000   0.16000   0.16000   0.16682
     Eigenvalues ---    0.20130   0.21891   0.21929   0.21950   0.22000
     Eigenvalues ---    0.22000   0.22001   0.23487   0.23539   0.24621
     Eigenvalues ---    0.24941   0.24962   0.24989   0.24995   0.25000
     Eigenvalues ---    0.25000   0.25000   0.26622   0.27452   0.28027
     Eigenvalues ---    0.28254   0.28264   0.31061   0.31145   0.31265
     Eigenvalues ---    0.31275   0.32119   0.32296   0.32322   0.32325
     Eigenvalues ---    0.32329   0.32366   0.32391   0.32396   0.32478
     Eigenvalues ---    0.32490   0.32513   0.32515   0.32534   0.32537
     Eigenvalues ---    0.32547   0.32551   0.32562   0.32567   0.32575
     Eigenvalues ---    0.32579   0.32612   0.32741   0.32770   0.32771
     Eigenvalues ---    0.32964   0.35216   0.35232   0.35548   0.35574
     Eigenvalues ---    0.35597   0.35609   0.38978   0.40149   0.41342
     Eigenvalues ---    0.43763   0.44613   0.45148   0.45152   0.45431
     Eigenvalues ---    0.45744   0.46778   0.54406   0.57739   0.79223
 RFO step:  Lambda=-3.51458417D-02 EMin= 2.30000000D-03
 Linear search not attempted -- first point.
 Maximum step size (   0.300) exceeded in Quadratic search.
    -- Step size scaled by   0.872
 Iteration  1 RMS(Cart)=  0.09382073 RMS(Int)=  0.00121134
 Iteration  2 RMS(Cart)=  0.00265388 RMS(Int)=  0.00009794
 Iteration  3 RMS(Cart)=  0.00000434 RMS(Int)=  0.00009791
 Iteration  4 RMS(Cart)=  0.00000000 RMS(Int)=  0.00009791
 Variable       Old X    -DE/DX   Delta X   Delta X   Delta X     New X
                                 (Linear)    (Quad)   (Total)
    R1        2.83927   0.00551   0.00000   0.01349   0.01349   2.85276
    R2        2.09854  -0.00917   0.00000  -0.02218  -0.02218   2.07636
    R3        2.09915  -0.01078   0.00000  -0.02608  -0.02608   2.07307
    R4        2.09827  -0.00856   0.00000  -0.02070  -0.02070   2.07757
    R5        2.65749  -0.00459   0.00000  -0.00860  -0.00858   2.64891
    R6        2.65290  -0.00674   0.00000  -0.01227  -0.01228   2.64062
    R7        2.66235  -0.00672   0.00000  -0.01155  -0.01142   2.65093
    R8        2.64809  -0.01956   0.00000  -0.03560  -0.03550   2.61259
    R9        2.84723   0.00139   0.00000   0.00562   0.00563   2.85286
   R10        2.64928  -0.00360   0.00000  -0.00626  -0.00626   2.64302
   R11        2.90347  -0.00158   0.00000  -0.00357  -0.00363   2.89984
   R12        2.09818  -0.00685   0.00000  -0.01655  -0.01655   2.08163
   R13        2.10135  -0.00930   0.00000  -0.02258  -0.02258   2.07877
   R14        2.93213  -0.00421   0.00000  -0.01272  -0.01288   2.91925
   R15        2.10305  -0.00942   0.00000  -0.02294  -0.02294   2.08010
   R16        2.10179  -0.01011   0.00000  -0.02456  -0.02456   2.07722
   R17        2.93352  -0.00685   0.00000  -0.01928  -0.01928   2.91423
   R18        2.91564  -0.00234   0.00000  -0.00643  -0.00643   2.90921
   R19        2.70384   0.00143   0.00000   0.00105   0.00107   2.70491
   R20        2.92079   0.00540   0.00000   0.01494   0.01494   2.93572
   R21        2.10126  -0.01105   0.00000  -0.02683  -0.02683   2.07442
   R22        2.10258  -0.00880   0.00000  -0.02140  -0.02140   2.08118
   R23        2.85491   0.00424   0.00000   0.01061   0.01061   2.86553
   R24        2.09878  -0.00980   0.00000  -0.02370  -0.02370   2.07508
   R25        2.09872  -0.00824   0.00000  -0.01992  -0.01992   2.07880
   R26        2.55663  -0.00876   0.00000  -0.01318  -0.01318   2.54345
   R27        2.05301   0.00174   0.00000   0.00391   0.00391   2.05691
   R28        2.85509   0.00391   0.00000   0.00980   0.00980   2.86489
   R29        2.85737   0.00681   0.00000   0.01712   0.01712   2.87449
   R30        2.09456  -0.00814   0.00000  -0.01956  -0.01956   2.07500
   R31        2.09848  -0.00976   0.00000  -0.02359  -0.02359   2.07489
   R32        2.09738  -0.00839   0.00000  -0.02025  -0.02025   2.07712
   R33        2.83547   0.01403   0.00000   0.03412   0.03412   2.86959
   R34        2.10253  -0.01029   0.00000  -0.02504  -0.02504   2.07749
   R35        2.09977  -0.00764   0.00000  -0.01852  -0.01852   2.08125
   R36        2.52775   0.00483   0.00000   0.00688   0.00688   2.53463
   R37        2.04753   0.00280   0.00000   0.00625   0.00625   2.05378
   R38        2.78625   0.00305   0.00000   0.00686   0.00686   2.79311
   R39        2.04794   0.00383   0.00000   0.00854   0.00854   2.05648
   R40        2.82415   0.01029   0.00000   0.02461   0.02461   2.84875
   R41        2.38337  -0.04459   0.00000  -0.04699  -0.04699   2.33638
   R42        2.09911  -0.01253   0.00000  -0.03033  -0.03033   2.06878
   R43        2.09804  -0.00759   0.00000  -0.01833  -0.01833   2.07971
   R44        2.09798  -0.00750   0.00000  -0.01812  -0.01812   2.07986
   R45        2.09508  -0.00851   0.00000  -0.02046  -0.02046   2.07462
   R46        2.09456  -0.00945   0.00000  -0.02271  -0.02271   2.07185
   R47        2.09956  -0.01029   0.00000  -0.02492  -0.02492   2.07464
   R48        2.64579  -0.00388   0.00000  -0.00662  -0.00663   2.63916
   R49        2.04717   0.00328   0.00000   0.00730   0.00730   2.05447
   R50        2.63264  -0.02353   0.00000  -0.04079  -0.04079   2.59184
   R51        2.64105  -0.00401   0.00000  -0.00695  -0.00697   2.63408
   R52        1.91479  -0.04059   0.00000  -0.07231  -0.07231   1.84247
   R53        2.04697   0.00143   0.00000   0.00319   0.00319   2.05016
    A1        1.91592   0.00464   0.00000   0.02049   0.02041   1.93633
    A2        1.94805  -0.00194   0.00000  -0.00749  -0.00748   1.94057
    A3        1.91198   0.00528   0.00000   0.02269   0.02262   1.93460
    A4        1.88887  -0.00083   0.00000  -0.00194  -0.00193   1.88694
    A5        1.90381  -0.00583   0.00000  -0.02841  -0.02856   1.87525
    A6        1.89453  -0.00162   0.00000  -0.00669  -0.00667   1.88786
    A7        2.09655  -0.00067   0.00000  -0.00159  -0.00161   2.09494
    A8        2.09976   0.00436   0.00000   0.01380   0.01377   2.11353
    A9        2.08670  -0.00369   0.00000  -0.01212  -0.01209   2.07461
   A10        2.09571   0.00612   0.00000   0.01918   0.01917   2.11488
   A11        2.08770  -0.01893   0.00000  -0.05622  -0.05632   2.03138
   A12        2.09963   0.01281   0.00000   0.03702   0.03714   2.13676
   A13        2.10478  -0.00294   0.00000  -0.00730  -0.00729   2.09749
   A14        2.08802  -0.00379   0.00000  -0.01223  -0.01225   2.07577
   A15        2.08951   0.00675   0.00000   0.02006   0.02000   2.10950
   A16        1.95829  -0.00473   0.00000  -0.01505  -0.01510   1.94320
   A17        1.90469   0.00186   0.00000   0.00901   0.00894   1.91363
   A18        1.91321   0.00161   0.00000   0.00526   0.00543   1.91864
   A19        1.92166   0.00104   0.00000   0.00234   0.00249   1.92414
   A20        1.89286   0.00256   0.00000   0.01201   0.01196   1.90481
   A21        1.87108  -0.00223   0.00000  -0.01358  -0.01360   1.85748
   A22        1.96355  -0.00062   0.00000  -0.00364  -0.00375   1.95979
   A23        1.87965   0.00323   0.00000   0.01930   0.01934   1.89899
   A24        1.90778   0.00070   0.00000   0.00964   0.00961   1.91740
   A25        1.90818  -0.00236   0.00000  -0.01321  -0.01327   1.89491
   A26        1.92703  -0.00044   0.00000  -0.00804  -0.00791   1.91912
   A27        1.87498  -0.00042   0.00000  -0.00346  -0.00373   1.87125
   A28        1.89528   0.00027   0.00000   0.00548   0.00539   1.90066
   A29        1.92839  -0.00212   0.00000   0.00430   0.00412   1.93251
   A30        1.90859   0.00411   0.00000   0.01668   0.01652   1.92511
   A31        1.93041   0.00449   0.00000   0.02025   0.02005   1.95046
   A32        1.89654  -0.00704   0.00000  -0.04507  -0.04492   1.85161
   A33        1.90426   0.00023   0.00000  -0.00240  -0.00229   1.90196
   A34        2.00407   0.00483   0.00000   0.01628   0.01629   2.02036
   A35        1.90871  -0.00316   0.00000  -0.02114  -0.02120   1.88751
   A36        1.88691  -0.00393   0.00000  -0.01805  -0.01837   1.86854
   A37        1.93099  -0.00120   0.00000  -0.00395  -0.00385   1.92714
   A38        1.87039   0.00205   0.00000   0.02206   0.02213   1.89253
   A39        1.85610   0.00123   0.00000   0.00476   0.00447   1.86058
   A40        1.95985   0.01130   0.00000   0.04088   0.04097   2.00081
   A41        1.92796  -0.00642   0.00000  -0.02988  -0.03023   1.89773
   A42        1.91687  -0.00384   0.00000  -0.01660  -0.01685   1.90003
   A43        1.89886  -0.00068   0.00000   0.00796   0.00827   1.90714
   A44        1.91244  -0.00311   0.00000  -0.00585  -0.00569   1.90675
   A45        1.84420   0.00216   0.00000   0.00120   0.00077   1.84497
   A46        2.16987   0.00504   0.00000   0.01727   0.01726   2.18712
   A47        2.03893  -0.00114   0.00000  -0.00237  -0.00239   2.03653
   A48        2.07404  -0.00388   0.00000  -0.01462  -0.01464   2.05940
   A49        2.12898   0.00235   0.00000   0.00738   0.00737   2.13634
   A50        2.08397   0.00489   0.00000   0.01517   0.01515   2.09913
   A51        2.06823  -0.00720   0.00000  -0.02188  -0.02190   2.04632
   A52        1.93121   0.00405   0.00000   0.01694   0.01686   1.94807
   A53        1.93483   0.00136   0.00000   0.00795   0.00784   1.94267
   A54        1.92142   0.00422   0.00000   0.01818   0.01809   1.93950
   A55        1.88241  -0.00237   0.00000  -0.00928  -0.00937   1.87303
   A56        1.91379  -0.00560   0.00000  -0.02857  -0.02863   1.88515
   A57        1.87905  -0.00206   0.00000  -0.00692  -0.00704   1.87201
   A58        1.93219   0.00937   0.00000   0.03381   0.03381   1.96599
   A59        1.94842  -0.00551   0.00000  -0.02523  -0.02531   1.92311
   A60        1.90216  -0.00134   0.00000  -0.00113  -0.00125   1.90092
   A61        1.91755  -0.00076   0.00000   0.00195   0.00213   1.91968
   A62        1.90181  -0.00321   0.00000  -0.00867  -0.00876   1.89304
   A63        1.85975   0.00109   0.00000  -0.00208  -0.00219   1.85756
   A64        2.11933   0.01174   0.00000   0.04012   0.04011   2.15944
   A65        2.06238  -0.00131   0.00000   0.00033   0.00033   2.06271
   A66        2.10146  -0.01043   0.00000  -0.04042  -0.04043   2.06104
   A67        2.13569  -0.00176   0.00000  -0.00603  -0.00603   2.12966
   A68        2.08384   0.00215   0.00000   0.00867   0.00866   2.09250
   A69        2.06365  -0.00038   0.00000  -0.00264  -0.00265   2.06101
   A70        2.08842  -0.00877   0.00000  -0.02681  -0.02681   2.06161
   A71        2.10807   0.00279   0.00000   0.00853   0.00853   2.11659
   A72        2.08668   0.00598   0.00000   0.01829   0.01829   2.10497
   A73        1.93048  -0.00342   0.00000  -0.01327  -0.01323   1.91725
   A74        1.91495   0.00404   0.00000   0.01752   0.01752   1.93248
   A75        1.91302   0.00343   0.00000   0.01385   0.01385   1.92687
   A76        1.89838   0.00070   0.00000   0.00602   0.00606   1.90444
   A77        1.90013   0.00035   0.00000   0.00263   0.00267   1.90280
   A78        1.90661  -0.00521   0.00000  -0.02726  -0.02730   1.87931
   A79        1.94218  -0.00068   0.00000  -0.00189  -0.00189   1.94029
   A80        1.93040  -0.00024   0.00000  -0.00051  -0.00051   1.92989
   A81        1.93265   0.00101   0.00000   0.00275   0.00276   1.93541
   A82        1.85349   0.00130   0.00000   0.00920   0.00920   1.86269
   A83        1.89861  -0.00044   0.00000  -0.00301  -0.00301   1.89561
   A84        1.90440  -0.00096   0.00000  -0.00652  -0.00652   1.89788
   A85        2.15590  -0.01013   0.00000  -0.04172  -0.04168   2.11422
   A86        2.10055  -0.00033   0.00000  -0.00039  -0.00039   2.10016
   A87        2.09419  -0.00067   0.00000  -0.00353  -0.00353   2.09066
   A88        2.08845   0.00100   0.00000   0.00392   0.00391   2.09237
   A89        2.10473   0.01151   0.00000   0.03491   0.03492   2.13965
   A90        2.09250   0.00121   0.00000   0.00429   0.00427   2.09677
   A91        2.08595  -0.01272   0.00000  -0.03920  -0.03919   2.04676
   A92        2.12111  -0.04019   0.00000  -0.17958  -0.17958   1.94154
   A93        2.10249   0.00049   0.00000   0.00147   0.00147   2.10396
   A94        2.10052  -0.00094   0.00000  -0.00386  -0.00386   2.09666
   A95        2.08017   0.00045   0.00000   0.00239   0.00239   2.08256
    D1        0.97518  -0.00069   0.00000  -0.00592  -0.00585   0.96933
    D2       -2.18657  -0.00039   0.00000  -0.00092  -0.00086  -2.18743
    D3        3.06949   0.00010   0.00000   0.00045   0.00046   3.06995
    D4       -0.09226   0.00041   0.00000   0.00545   0.00545  -0.08681
    D5       -1.11492   0.00035   0.00000   0.00236   0.00230  -1.11263
    D6        2.00652   0.00065   0.00000   0.00736   0.00729   2.01380
    D7       -3.13712  -0.00000   0.00000  -0.00014  -0.00020  -3.13732
    D8       -0.01376  -0.00007   0.00000  -0.00110  -0.00103  -0.01479
    D9        0.02447  -0.00040   0.00000  -0.00540  -0.00537   0.01910
   D10       -3.13535  -0.00046   0.00000  -0.00635  -0.00620  -3.14155
   D11       -3.12834  -0.00014   0.00000  -0.00325  -0.00324  -3.13158
   D12        0.00979  -0.00001   0.00000  -0.00076  -0.00077   0.00902
   D13       -0.00679   0.00020   0.00000   0.00184   0.00181  -0.00498
   D14        3.13134   0.00032   0.00000   0.00433   0.00428   3.13562
   D15       -3.12896  -0.00014   0.00000  -0.00597  -0.00583  -3.13479
   D16       -0.03258   0.00055   0.00000   0.00819   0.00813  -0.02445
   D17        0.03099   0.00025   0.00000  -0.00403  -0.00396   0.02703
   D18        3.12737   0.00095   0.00000   0.01014   0.01000   3.13737
   D19        2.97265   0.00065   0.00000  -0.00209  -0.00218   2.97048
   D20       -0.18722   0.00052   0.00000  -0.00324  -0.00322  -0.19044
   D21       -0.35190   0.00064   0.00000   0.00778   0.00766  -0.34424
   D22        1.78282   0.00010   0.00000   0.00701   0.00692   1.78975
   D23       -2.45604  -0.00059   0.00000  -0.00114  -0.00119  -2.45724
   D24        2.83495   0.00022   0.00000  -0.00557  -0.00573   2.82922
   D25       -1.31351  -0.00032   0.00000  -0.00633  -0.00647  -1.31998
   D26        0.73080  -0.00101   0.00000  -0.01448  -0.01458   0.71622
   D27        0.02307  -0.00049   0.00000  -0.00744  -0.00733   0.01574
   D28       -3.11920  -0.00054   0.00000  -0.00962  -0.00958  -3.12878
   D29        3.11985  -0.00005   0.00000   0.00590   0.00601   3.12586
   D30       -0.02243  -0.00011   0.00000   0.00372   0.00377  -0.01866
   D31        0.79028  -0.00078   0.00000   0.00011  -0.00005   0.79023
   D32       -1.31369   0.00038   0.00000   0.00588   0.00588  -1.30782
   D33        2.93762  -0.00127   0.00000  -0.00574  -0.00587   2.93175
   D34       -1.33477  -0.00066   0.00000  -0.00277  -0.00290  -1.33767
   D35        2.84444   0.00050   0.00000   0.00299   0.00303   2.84747
   D36        0.81257  -0.00114   0.00000  -0.00863  -0.00871   0.80385
   D37        2.90617  -0.00004   0.00000   0.00528   0.00513   2.91130
   D38        0.80219   0.00112   0.00000   0.01104   0.01106   0.81325
   D39       -1.22968  -0.00053   0.00000  -0.00058  -0.00069  -1.23036
   D40       -2.97748   0.00208   0.00000   0.01359   0.01359  -2.96389
   D41        1.18566  -0.00232   0.00000  -0.01766  -0.01757   1.16808
   D42       -0.91058  -0.00389   0.00000  -0.02797  -0.02804  -0.93862
   D43       -0.89000   0.00415   0.00000   0.02659   0.02652  -0.86348
   D44       -3.01005  -0.00025   0.00000  -0.00465  -0.00464  -3.01469
   D45        1.17690  -0.00183   0.00000  -0.01496  -0.01511   1.16179
   D46        1.16918   0.00193   0.00000   0.00955   0.00956   1.17874
   D47       -0.95086  -0.00247   0.00000  -0.02169  -0.02161  -0.97247
   D48       -3.04710  -0.00405   0.00000  -0.03200  -0.03207  -3.07917
   D49        3.08212   0.00133   0.00000   0.00282   0.00272   3.08484
   D50       -1.01869   0.00080   0.00000  -0.00735  -0.00752  -1.02620
   D51        0.99528  -0.00156   0.00000  -0.02272  -0.02263   0.97266
   D52       -1.08226   0.00168   0.00000   0.02431   0.02436  -1.05791
   D53        1.10012   0.00115   0.00000   0.01414   0.01412   1.11424
   D54        3.11409  -0.00120   0.00000  -0.00123  -0.00099   3.11310
   D55        1.00761   0.00026   0.00000   0.00538   0.00529   1.01291
   D56       -3.09319  -0.00027   0.00000  -0.00479  -0.00494  -3.09814
   D57       -1.07923  -0.00262   0.00000  -0.02016  -0.02005  -1.09928
   D58       -0.99572  -0.00024   0.00000   0.00439   0.00450  -0.99122
   D59       -3.05153  -0.00127   0.00000  -0.00555  -0.00544  -3.05696
   D60        1.11827  -0.00057   0.00000   0.00117   0.00129   1.11956
   D61       -3.09483  -0.00212   0.00000  -0.01849  -0.01855  -3.11338
   D62        1.13254  -0.00315   0.00000  -0.02842  -0.02849   1.10406
   D63       -0.98084  -0.00245   0.00000  -0.02170  -0.02176  -1.00261
   D64        1.10312   0.00367   0.00000   0.02611   0.02606   1.12918
   D65       -0.95269   0.00264   0.00000   0.01617   0.01612  -0.93656
   D66       -3.06607   0.00333   0.00000   0.02290   0.02285  -3.04323
   D67        0.62150   0.00098   0.00000   0.01721   0.01727   0.63877
   D68        2.68761  -0.00043   0.00000   0.00717   0.00689   2.69450
   D69       -1.48947   0.00091   0.00000   0.00317   0.00334  -1.48613
   D70        1.65435  -0.00008   0.00000  -0.00900  -0.00918   1.64517
   D71       -0.46878  -0.00246   0.00000  -0.02620  -0.02601  -0.49479
   D72       -2.49620   0.00094   0.00000  -0.00033  -0.00061  -2.49681
   D73       -0.51633   0.00143   0.00000   0.01011   0.01002  -0.50631
   D74       -2.63946  -0.00095   0.00000  -0.00709  -0.00681  -2.64627
   D75        1.61631   0.00245   0.00000   0.01878   0.01859   1.63489
   D76       -2.53284  -0.00057   0.00000  -0.00595  -0.00594  -2.53879
   D77        1.62721  -0.00294   0.00000  -0.02314  -0.02278   1.60444
   D78       -0.40021   0.00046   0.00000   0.00273   0.00262  -0.39759
   D79        1.37860   0.00086   0.00000   0.01000   0.00987   1.38847
   D80       -1.79212   0.00150   0.00000   0.02125   0.02115  -1.77096
   D81       -2.76492  -0.00023   0.00000   0.00489   0.00507  -2.75985
   D82        0.34755   0.00040   0.00000   0.01615   0.01636   0.36391
   D83       -0.75654   0.00028   0.00000   0.00754   0.00744  -0.74910
   D84        2.35592   0.00092   0.00000   0.01879   0.01873   2.37465
   D85        0.05990  -0.00125   0.00000  -0.01969  -0.01979   0.04010
   D86        3.13241  -0.00094   0.00000  -0.00897  -0.00891   3.12350
   D87       -3.05203  -0.00194   0.00000  -0.03135  -0.03141  -3.08344
   D88        0.02049  -0.00163   0.00000  -0.02064  -0.02053  -0.00004
   D89       -1.08196   0.00104   0.00000   0.01078   0.01076  -1.07120
   D90        3.11351   0.00048   0.00000   0.00618   0.00615   3.11966
   D91        1.03629  -0.00051   0.00000  -0.00184  -0.00190   1.03439
   D92        2.12811   0.00028   0.00000  -0.00124  -0.00119   2.12693
   D93        0.04039  -0.00028   0.00000  -0.00584  -0.00579   0.03460
   D94       -2.03683  -0.00128   0.00000  -0.01386  -0.01385  -2.05067
   D95       -1.73225  -0.00202   0.00000  -0.03506  -0.03489  -1.76714
   D96        0.40992  -0.00019   0.00000  -0.02616  -0.02629   0.38362
   D97        2.45945  -0.00296   0.00000  -0.04439  -0.04437   2.41509
   D98        1.34267  -0.00137   0.00000  -0.02362  -0.02349   1.31918
   D99       -2.79835   0.00047   0.00000  -0.01472  -0.01489  -2.81324
   D100      -0.74881  -0.00230   0.00000  -0.03295  -0.03296  -0.78177
   D101       1.26062  -0.00077   0.00000  -0.00095  -0.00090   1.25972
   D102      -1.88704  -0.00046   0.00000   0.00431   0.00440  -1.88263
   D103      -0.89939   0.00032   0.00000   0.00652   0.00643  -0.89296
   D104       2.23614   0.00063   0.00000   0.01178   0.01173   2.24787
   D105      -2.93087   0.00128   0.00000   0.01290   0.01288  -2.91799
   D106       0.20466   0.00159   0.00000   0.01815   0.01818   0.22285
   D107      -3.13840   0.00016   0.00000   0.00281   0.00278  -3.13562
   D108       0.00144  -0.00007   0.00000  -0.00082  -0.00086   0.00058
   D109       0.00939  -0.00019   0.00000  -0.00271  -0.00266   0.00673
   D110      -3.13395  -0.00042   0.00000  -0.00634  -0.00631  -3.14026
   D111       3.13968  -0.00011   0.00000  -0.00181  -0.00180   3.13788
   D112      -0.00863   0.00002   0.00000   0.00072   0.00073  -0.00791
   D113      -0.00018   0.00011   0.00000   0.00177   0.00177   0.00159
   D114       3.13469   0.00025   0.00000   0.00431   0.00430   3.13899
   D115      -3.08743  -0.00027   0.00000  -0.00204  -0.00204  -3.08947
   D116      -0.99309   0.00104   0.00000   0.00828   0.00826  -0.98483
   D117       1.10049  -0.00075   0.00000  -0.00582  -0.00579   1.09471
   D118       0.06080  -0.00039   0.00000  -0.00451  -0.00451   0.05629
   D119       2.15515   0.00091   0.00000   0.00582   0.00578   2.16093
   D120      -2.03446  -0.00087   0.00000  -0.00829  -0.00826  -2.04272
   D121       3.13724   0.00007   0.00000   0.00103   0.00097   3.13820
   D122      -0.00547   0.00012   0.00000   0.00337   0.00339  -0.00208
   D123      -0.00368   0.00012   0.00000   0.00321   0.00321  -0.00046
   D124       3.13680   0.00017   0.00000   0.00555   0.00564  -3.14075
   D125      -0.00126   0.00000   0.00000   0.00071   0.00072  -0.00054
   D126       3.14145  -0.00006   0.00000  -0.00165  -0.00167   3.13978
   D127      -0.00274   0.00001   0.00000  -0.00062  -0.00066  -0.00340
   D128      -3.14091  -0.00011   0.00000  -0.00308  -0.00310   3.13918
   D129       3.13775   0.00007   0.00000   0.00174   0.00169   3.13944
   D130      -0.00042  -0.00005   0.00000  -0.00072  -0.00075  -0.00117
         Item               Value     Threshold  Converged?
 Maximum Force            0.044589     0.000450     NO 
 RMS     Force            0.006424     0.000300     NO 
 Maximum Displacement     0.370034     0.001800     NO 
 RMS     Displacement     0.093400     0.001200     NO 
 Predicted change in Energy=-1.925791D-02
 GradGradGradGradGradGradGradGradGradGradGradGradGradGradGradGradGradGrad

 Stoichiometry    C21H28O3
 Framework group  C1[X(C21H28O3)]
 Deg. of freedom   150
 Full point group                 C1      NOp   1
 Largest Abelian subgroup         C1      NOp   1
 Largest concise Abelian subgroup C1      NOp   1
                         Standard orientation:                         
 ---------------------------------------------------------------------
 Center     Atomic      Atomic             Coordinates (Angstroms)
 Number     Number       Type             X           Y           Z
 ---------------------------------------------------------------------
      1          6           0        2.685786    2.714094    0.851805
      2          6           0        3.678975    1.670199    0.401471
      3          6           0        3.256379    0.354153    0.168411
      4          6           0        4.159710   -0.636016   -0.245634
      5          6           0        3.678462   -2.044375   -0.498666
      6          6           0        2.336448   -2.309247    0.196767
      7          6           0        1.332177   -1.153471   -0.008233
      8          6           0        0.120935   -1.373531    0.920573
      9          6           0       -0.957340   -0.255350    0.900273
     10          6           0       -2.109880   -0.505787   -0.052783
     11          6           0       -3.158690   -1.313629    0.189976
     12          6           0       -3.332061   -2.046745    1.505591
     13          6           0       -4.266457   -1.462979   -0.841693
     14          6           0       -5.498753   -0.644521   -0.498954
     15          6           0       -5.554119    0.692430   -0.591146
     16          6           0       -6.772325    1.452400   -0.240351
     17          6           0       -6.735832    2.953677   -0.372172
     18          8           0       -7.797174    0.879207    0.146588
     19          6           0        0.908379   -1.055495   -1.484995
     20          8           0        1.917768    0.090003    0.391387
     21          6           0        5.497743   -0.286534   -0.454646
     22          6           0        5.926886    1.024206   -0.235002
     23          8           0        7.227762    1.416735   -0.421477
     24          6           0        5.021986    1.994515    0.192312
     25          1           0        2.165697    2.393302    1.764976
     26          1           0        3.182215    3.669965    1.059944
     27          1           0        1.921590    2.885598    0.080263
     28          1           0        3.586079   -2.214921   -1.583008
     29          1           0        4.423101   -2.766550   -0.132529
[...]
 ---------------------------------------------------------------------
 Center     Atomic      Atomic             Coordinates (Angstroms)
 Number     Number       Type             X           Y           Z
 ---------------------------------------------------------------------
      1          6           0        2.697200    1.917386    2.043886
      2          6           0        3.650218    1.348034    1.023597
      3          6           0        3.278821    0.214341    0.270755
      4          6           0        4.147547   -0.342133   -0.673927
      5          6           0        3.733344   -1.567308   -1.459497
      6          6           0        2.542035   -2.269600   -0.798375
      7          6           0        1.455580   -1.269425   -0.361547
      8          6           0        0.383698   -2.004202    0.466160
      9          6           0       -0.759513   -1.133284    1.056254
     10          6           0       -2.012321   -1.102056    0.219460
     11          6           0       -3.249247   -1.500450    0.555941
     12          6           0       -3.649340   -2.080923    1.890523
     13          6           0       -4.379748   -1.379877   -0.463104
     14          6           0       -5.389344   -0.324277   -0.104458
     15          6           0       -5.713080    0.731069   -0.864889
     16          6           0       -6.726991    1.726778   -0.418759
     17          6           0       -6.997231    2.882706   -1.367324
     18          8           0       -7.313409    1.627395    0.649360
     19          6           0        0.868887   -0.501262   -1.554947
     20          8           0        2.038360   -0.312472    0.558278
     21          6           0        5.401110    0.254487   -0.873562
     22          6           0        5.779845    1.376748   -0.143871
     23          8           0        6.995323    1.997275   -0.301974
     24          6           0        4.902486    1.914961    0.804619
     25          1           0        2.450510    1.177823    2.814993
     26          1           0        3.128244    2.795348    2.534063
     27          1           0        1.747678    2.211434    1.580821
     28          1           0        3.479929   -1.285330   -2.491400
     29          1           0        4.577117   -2.264032   -1.539756
     30          1           0        2.884111   -2.807407    0.094647
     31          1           0        2.106550   -3.012585   -1.476724
     32          1           0       -0.040863   -2.806599   -0.150363
     33          1           0        0.913190   -2.491917    1.293035
     34          1           0       -0.380510   -0.112234    1.196136
     35          1           0       -0.988246   -1.500746    2.060531
     36          1           0       -1.882923   -0.708304   -0.789215
     37          1           0       -4.122934   -3.063526    1.757226
     38          1           0       -4.386793   -1.445611    2.398568
     39          1           0       -2.804869   -2.207558    2.571086
     40          1           0       -3.968816   -1.174841   -1.457930
     41          1           0       -4.903139   -2.348799   -0.524204
     42          1           0       -5.902557   -0.416356    0.852368
     43          1           0       -5.239633    0.888125   -1.833493
     44          1           0       -7.752492    3.544770   -0.939938
     45          1           0       -6.075346    3.448491   -1.554471
     46          1           0       -7.343671    2.508194   -2.339324
     47          1           0        1.648295    0.042103   -2.097061
     48          1           0        0.136012    0.234674   -1.213765
     49          1           0        0.377255   -1.186409   -2.255194
     50          1           0        6.082844   -0.176764   -1.606590
     51          1           0        7.499091    1.522150   -0.980380
     52          1           0        5.216017    2.788032    1.369419
 ---------------------------------------------------------------------
 Rotational constants (GHZ):           0.4403010           0.0733444           0.0687911

 **********************************************************************

            Population analysis using the SCF density.

 **********************************************************************

 Orbital symmetries:
       Occupied  (A) (A) (A) (A) (A) (A) (A) (A) (A) (A) (A) (A)
                 (A) (A) (A) (A) (A) (A) (A) (A) (A) (A) (A) (A)
                 (A) (A) (A) (A) (A) (A) (A) (A) (A) (A) (A) (A)
                 (A) (A) (A) (A) (A) (A) (A) (A) (A) (A) (A) (A)
                 (A) (A) (A) (A) (A) (A) (A) (A) (A) (A) (A) (A)
                 (A) (A) (A) (A) (A) (A) (A) (A) (A) (A) (A) (A)
                 (A) (A) (A) (A) (A) (A) (A) (A) (A) (A) (A) (A)
                 (A) (A) (A) (A) (A)
       Virtual   (A) (A) (A) (A) (A) (A) (A) (A) (A) (A) (A) (A)
                 (A) (A) (A) (A) (A) (A) (A) (A) (A) (A) (A) (A)
                 (A) (A) (A) (A) (A) (A) (A) (A) (A) (A) (A) (A)
                 (A) (A) (A) (A) (A) (A) (A) (A) (A) (A) (A) (A)
                 (A) (A) (A) (A) (A) (A) (A) (A) (A) (A) (A) (A)
                 (A) (A) (A) (A) (A) (A) (A) (A) (A) (A) (A) (A)
                 (A) (A) (A) (A) (A) (A) (A) (A) (A) (A) (A) (A)
                 (A) (A) (A) (A) (A) (A) (A) (A) (A) (A) (A) (A)
                 (A) (A) (A) (A) (A) (A) (A) (A) (A) (A) (A) (A)
                 (A) (A) (A) (A) (A) (A) (A) (A) (A) (A) (A) (A)
                 (A) (A) (A) (A) (A) (A) (A) (A) (A) (A) (A) (A)
                 (A) (A) (A) (A) (A) (A) (A) (A) (A) (A) (A) (A)
                 (A) (A) (A) (A) (A) (A) (A) (A) (A) (A) (A) (A)
                 (A) (A) (A) (A) (A) (A) (A) (A) (A) (A) (A) (A)
                 (A) (A) (A) (A) (A) (A) (A) (A) (A) (A) (A) (A)
                 (A) (A) (A) (A) (A) (A) (A) (A) (A) (A) (A) (A)
                 (A) (A) (A) (A) (A) (A) (A) (A) (A) (A) (A) (A)
                 (A) (A) (A) (A) (A) (A) (A) (A) (A) (A) (A) (A)
                 (A) (A) (A) (A) (A) (A) (A) (A) (A) (A) (A) (A)
                 (A) (A) (A) (A) (A) (A) (A) (A) (A) (A) (A) (A)
                 (A) (A) (A) (A) (A) (A) (A) (A) (A) (A) (A) (A)
                 (A) (A) (A) (A) (A) (A) (A) (A) (A) (A) (A) (A)
                 (A) (A) (A) (A) (A) (A) (A) (A) (A) (A) (A) (A)
                 (A) (A) (A) (A) (A) (A) (A) (A) (A) (A) (A) (A)
                 (A) (A) (A) (A) (A) (A) (A) (A) (A) (A) (A) (A)
                 (A) (A) (A) (A) (A) (A) (A) (A) (A) (A) (A) (A)
                 (A) (A) (A) (A) (A) (A) (A) (A) (A) (A) (A) (A)
                 (A) (A) (A)
 The electronic state is 1-A.
 Alpha  occ. eigenvalues --  -19.16870 -19.16153 -19.12534 -10.26800 -10.25041
 Alpha  occ. eigenvalues --  -10.23598 -10.22924 -10.20654 -10.19875 -10.19661
 Alpha  occ. eigenvalues --  -10.19357 -10.18994 -10.18919 -10.18841 -10.18825
 Alpha  occ. eigenvalues --  -10.18606 -10.18478 -10.18438 -10.18381 -10.18154
 Alpha  occ. eigenvalues --  -10.18077 -10.18023 -10.17480 -10.17391  -1.04866
 Alpha  occ. eigenvalues --   -1.04717  -1.02413  -0.84740  -0.83067  -0.82044
 Alpha  occ. eigenvalues --   -0.79300  -0.77759  -0.75329  -0.74629  -0.73400
 Alpha  occ. eigenvalues --   -0.70666  -0.69490  -0.68885  -0.67750  -0.65026
 Alpha  occ. eigenvalues --   -0.62606  -0.60212  -0.59357  -0.58121  -0.54135
 Alpha  occ. eigenvalues --   -0.53059  -0.51922  -0.51560  -0.50485  -0.48861
 Alpha  occ. eigenvalues --   -0.47633  -0.46540  -0.45552  -0.45464  -0.45050
 Alpha  occ. eigenvalues --   -0.43972  -0.43759  -0.43465  -0.42630  -0.41844
 Alpha  occ. eigenvalues --   -0.41402  -0.40992  -0.40336  -0.40029  -0.39801
 Alpha  occ. eigenvalues --   -0.39275  -0.38982  -0.38815  -0.38368  -0.38087
 Alpha  occ. eigenvalues --   -0.37193  -0.36905  -0.36685  -0.36558  -0.36166
 Alpha  occ. eigenvalues --   -0.35774  -0.35448  -0.35278  -0.34586  -0.32741
 Alpha  occ. eigenvalues --   -0.32536  -0.31618  -0.29819  -0.28213  -0.26179
 Alpha  occ. eigenvalues --   -0.24138  -0.23523  -0.23318  -0.19057
 Alpha virt. eigenvalues --   -0.04601   0.00410   0.02368   0.03226   0.06965
 Alpha virt. eigenvalues --    0.07261   0.07706   0.09425   0.10134   0.10656
 Alpha virt. eigenvalues --    0.11100   0.11245   0.11487   0.12132   0.12745
 Alpha virt. eigenvalues --    0.13370   0.14211   0.14547   0.14964   0.15589
 Alpha virt. eigenvalues --    0.15962   0.16191   0.16717   0.17089   0.17535
 Alpha virt. eigenvalues --    0.18342   0.18412   0.18600   0.19053   0.19824
 Alpha virt. eigenvalues --    0.20832   0.20999   0.21505   0.21979   0.22177
 Alpha virt. eigenvalues --    0.22708   0.23239   0.23960   0.23992   0.24152
 Alpha virt. eigenvalues --    0.24867   0.25659   0.26568   0.27376   0.27873
 Alpha virt. eigenvalues --    0.29010   0.30061   0.30773   0.32090   0.34457
 Alpha virt. eigenvalues --    0.34738   0.35469   0.37122   0.39333   0.39453
 Alpha virt. eigenvalues --    0.40883   0.44289   0.47494   0.48436   0.49665
 Alpha virt. eigenvalues --    0.49870   0.51639   0.51865   0.51918   0.52651
 Alpha virt. eigenvalues --    0.53537   0.54146   0.54903   0.55120   0.55636
 Alpha virt. eigenvalues --    0.55889   0.56714   0.57073   0.58008   0.58226
 Alpha virt. eigenvalues --    0.58735   0.59699   0.59771   0.60118   0.61021
 Alpha virt. eigenvalues --    0.61283   0.62274   0.63095   0.63880   0.64745
 Alpha virt. eigenvalues --    0.65185   0.65658   0.66001   0.66269   0.67360
 Alpha virt. eigenvalues --    0.67736   0.68213   0.69772   0.70097   0.71399
 Alpha virt. eigenvalues --    0.71644   0.72256   0.72865   0.73815   0.74328
 Alpha virt. eigenvalues --    0.74350   0.75880   0.76347   0.77476   0.77501
 Alpha virt. eigenvalues --    0.78344   0.79124   0.80811   0.81691   0.82399
 Alpha virt. eigenvalues --    0.83152   0.83240   0.83765   0.84677   0.85020
 Alpha virt. eigenvalues --    0.85766   0.86180   0.86524   0.87225   0.87502
 Alpha virt. eigenvalues --    0.88438   0.88996   0.89279   0.90715   0.90932
 Alpha virt. eigenvalues --    0.91380   0.91875   0.92068   0.92346   0.92885
 Alpha virt. eigenvalues --    0.93374   0.93826   0.94071   0.94772   0.95118
 Alpha virt. eigenvalues --    0.95845   0.96426   0.96725   0.97310   0.98204
 Alpha virt. eigenvalues --    0.98691   0.99029   0.99605   1.00806   1.01558
 Alpha virt. eigenvalues --    1.02531   1.03603   1.04465   1.04704   1.05566
 Alpha virt. eigenvalues --    1.08513   1.10274   1.11420   1.12042   1.14204
 Alpha virt. eigenvalues --    1.15834   1.18609   1.19244   1.19908   1.20625
 Alpha virt. eigenvalues --    1.21247   1.22673   1.24827   1.25758   1.27277
 Alpha virt. eigenvalues --    1.28053   1.30018   1.30718   1.33427   1.35704
 Alpha virt. eigenvalues --    1.36930   1.36999   1.37987   1.38510   1.39201
 Alpha virt. eigenvalues --    1.40267   1.41765   1.42793   1.45272   1.45420
 Alpha virt. eigenvalues --    1.46431   1.48960   1.49600   1.54072   1.56017
 Alpha virt. eigenvalues --    1.57280   1.57293   1.59501   1.63495   1.65153
 Alpha virt. eigenvalues --    1.66207   1.66855   1.67935   1.68617   1.70968
 Alpha virt. eigenvalues --    1.73335   1.74153   1.75175   1.76836   1.77178
 Alpha virt. eigenvalues --    1.78249   1.80300   1.80585   1.80663   1.81435
 Alpha virt. eigenvalues --    1.82371   1.84089   1.84717   1.85272   1.85837
 Alpha virt. eigenvalues --    1.86558   1.87473   1.87842   1.88133   1.89324
 Alpha virt. eigenvalues --    1.90789   1.91601   1.92107   1.92601   1.92979
 Alpha virt. eigenvalues --    1.93421   1.94486   1.94737   1.96526   1.97495
 Alpha virt. eigenvalues --    1.98356   1.99530   2.00413   2.02978   2.03776
 Alpha virt. eigenvalues --    2.05121   2.06075   2.07145   2.08018   2.09495
 Alpha virt. eigenvalues --    2.09850   2.11893   2.13345   2.15383   2.16297
 Alpha virt. eigenvalues --    2.16813   2.17205   2.19077   2.20086   2.21115
 Alpha virt. eigenvalues --    2.21785   2.22525   2.22835   2.26771   2.27624
 Alpha virt. eigenvalues --    2.28299   2.28341   2.30383   2.30629   2.31509
 Alpha virt. eigenvalues --    2.32706   2.33260   2.34692   2.35128   2.36934
 Alpha virt. eigenvalues --    2.37516   2.38060   2.39136   2.40339   2.41880
 Alpha virt. eigenvalues --    2.42800   2.44358   2.44807   2.46356   2.47174
 Alpha virt. eigenvalues --    2.48974   2.49880   2.53147   2.55202   2.55472
 Alpha virt. eigenvalues --    2.58364   2.58789   2.61241   2.62490   2.64592
 Alpha virt. eigenvalues --    2.66921   2.67772   2.69293   2.71421   2.73071
 Alpha virt. eigenvalues --    2.75054   2.77866   2.80171   2.81091   2.84062
 Alpha virt. eigenvalues --    2.84898   2.87642   2.90061   2.91662   2.92161
 Alpha virt. eigenvalues --    2.97886   3.00991   3.02837   3.04367   3.08675
 Alpha virt. eigenvalues --    3.13110   3.26768   3.45214   3.95558   3.96300
 Alpha virt. eigenvalues --    4.08902   4.10625   4.12080   4.13481   4.17645
 Alpha virt. eigenvalues --    4.20592   4.21477   4.23893   4.25586   4.29348
 Alpha virt. eigenvalues --    4.29925   4.33593   4.38910   4.42311   4.44984
 Alpha virt. eigenvalues --    4.49121   4.51195   4.54171   4.56997   4.59572
 Alpha virt. eigenvalues --    4.77670   4.87760
          Condensed to atoms (all electrons):
 Mulliken charges:
               1
     1  C   -0.514753
     2  C    0.118455
     3  C    0.265042
     4  C    0.142307
     5  C   -0.360701
     6  C   -0.283050
     7  C    0.302825
     8  C   -0.269293
     9  C   -0.324636
    10  C   -0.160350
    11  C    0.178212
    12  C   -0.522365
    13  C   -0.385811
    14  C   -0.048772
    15  C   -0.187742
    16  C    0.434762
    17  C   -0.537920
    18  O   -0.462426
    19  C   -0.465109
    20  O   -0.571274
    21  C   -0.280702
    22  C    0.367423
    23  O   -0.655520
    24  C   -0.233320
    25  H    0.164810
    26  H    0.148578
    27  H    0.161831
    28  H    0.153694
    29  H    0.150674
    30  H    0.148324
    31  H    0.136384
    32  H    0.137095
    33  H    0.143206
    34  H    0.170366
    35  H    0.140994
    36  H    0.115155
    37  H    0.152557
    38  H    0.166618
    39  H    0.160205
    40  H    0.147690
    41  H    0.155021
    42  H    0.166752
    43  H    0.121495
    44  H    0.177337
    45  H    0.167660
    46  H    0.166514
    47  H    0.159260
    48  H    0.162041
    49  H    0.141409
    50  H    0.105777
    51  H    0.403433
    52  H    0.129837
 Sum of Mulliken charges =  -0.00000
 Mulliken charges with hydrogens summed into heavy atoms:
               1
     1  C   -0.039534
     2  C    0.118455
     3  C    0.265042
     4  C    0.142307
     5  C   -0.056332
     6  C    0.001658
     7  C    0.302825
     8  C    0.011008
     9  C   -0.013276
    10  C   -0.045195
    11  C    0.178212
    12  C   -0.042985
    13  C   -0.083100
    14  C    0.117980
    15  C   -0.066248
    16  C    0.434762
    17  C   -0.026408
    18  O   -0.462426
    19  C   -0.002400
    20  O   -0.571274
    21  C   -0.174925
    22  C    0.367423
    23  O   -0.252087
    24  C   -0.103483
 Electronic spatial extent (au):  <R**2>=          15297.9737
 Charge=             -0.0000 electrons
 Dipole moment (field-independent basis, Debye):
    X=              1.8055    Y=             -2.6857    Z=             -3.4940  Tot=              4.7624
 Quadrupole moment (field-independent basis, Debye-Ang):
   XX=           -163.9384   YY=           -141.5312   ZZ=           -138.5002
   XY=             -2.4994   XZ=              3.2382   YZ=             -3.2037
 Traceless Quadrupole moment (field-independent basis, Debye-Ang):
   XX=            -15.9485   YY=              6.4587   ZZ=              9.4897
   XY=             -2.4994   XZ=              3.2382   YZ=             -3.2037
 Octapole moment (field-independent basis, Debye-Ang**2):
  XXX=            284.5295  YYY=              6.4871  ZZZ=              0.3112  XYY=            -28.3140
  XXY=            -85.1910  XXZ=           -174.8046  XZZ=              9.4073  YZZ=              4.2366
  YYZ=             -0.9067  XYZ=             37.8987
 Hexadecapole moment (field-independent basis, Debye-Ang**3):
 XXXX=         -18049.9058 YYYY=          -2335.6363 ZZZZ=          -1160.5017 XXXY=             44.7364
 XXXZ=            105.6657 YYYX=           -104.5403 YYYZ=              2.0350 ZZZX=            -23.2637
 ZZZY=             -6.2601 XXYY=          -3254.8393 XXZZ=          -2861.8623 YYZZ=           -570.1807
 XXYZ=           -251.9425 YYXZ=             59.1168 ZZXY=             18.4577
 N-N= 1.943828395046D+03 E-N=-6.309929681620D+03  KE= 1.032826719814D+03
 1\1\GINC-C078\FOpt\RB3LYP\6-31G(d)\C21H28O3\XYCAO\28-Dec-2023\0\\# opt
  b3lyp/6-31g(d)\\molecule_9_1\\0,1\C,-2.9660058955,2.0954190337,2.0857
 590481\C,-3.8597322843,0.9410843472,1.708722504\C,-3.4934260098,0.0858
 545412,0.6483593853\C,-4.3090918964,-0.9854769684,0.2692680779\C,-3.90
 28849695,-1.8809875615,-0.8808593421\C,-2.8175366567,-1.2198781562,-1.
 7378698411\C,-1.7147941479,-0.5791965986,-0.8747124884\C,-0.7645617533
 ,0.2333279773,-1.7751508407\C,0.3736069612,1.0141681577,-1.062058052\C
 ,1.6936670354,0.2886122477,-1.020371253\C,2.8706999165,0.6695797505,-1
 .5413156091\C,3.1183288102,1.9497740568,-2.3015208716\C,4.0902541398,-
 0.2348752029,-1.381092706\C,5.1266526389,0.3292518154,-0.4484393769\C,
 5.5777260716,-0.2676000029,0.6638172433\C,6.6072545851,0.3760337805,1.
 5265384268\C,7.0274356833,-0.3987472882,2.7643334507\O,7.0921096945,1.
 466518247,1.2612078568\C,-0.9820493619,-1.6190893607,-0.0143668881\O,-
 2.316361481,0.4028487558,0.0057255009\C,-5.5025906113,-1.2079564283,0.
 9716174578\C,-5.8748796798,-0.3776144641,2.0238962536\O,-7.0326584077,
 -0.5530722315,2.7423674531\C,-5.052055077,0.6959129194,2.3838459497\H,
 -2.8317740665,2.7865382723,1.2450740677\H,-3.3842839583,2.6546170129,2
 .927917132\H,-1.9640648857,1.7481304866,2.3650254853\H,-3.5447345386,-
 2.847180882,-0.4977752298\H,-4.7768873632,-2.1124850874,-1.5024280775\
 H,-3.2672183518,-0.4295515356,-2.3518006513\H,-2.370465689,-1.94825524
 24,-2.4244754107\H,-0.33726815,-0.4420621318,-2.527122942\H,-1.3918904
 853,0.9496648194,-2.3185382629\H,0.0459579762,1.2485411426,-0.04055506
 85\H,0.4921788579,1.9803778544,-1.5603548385\H,1.6758389113,-0.6709064
 336,-0.5024764099\H,3.5417842738,1.7340816446,-3.292344705\H,3.8459326
 278,2.588552159,-1.7837141195\H,2.2121107463,2.5411005014,-2.447930844
 1\H,3.7799213131,-1.2260538749,-1.0320349744\H,4.557811144,-0.37354870
 27,-2.3703563498\H,5.5487692762,1.304786363,-0.6882987711\H,5.20007663
 52,-1.2436593016,0.966640379\H,7.7813274843,0.1649305923,3.3168913036\
 H,6.1608400179,-0.5866166706,3.4114247779\H,7.4334763661,-1.3792344723
 ,2.4835476079\H,-1.6776208713,-2.1496870513,0.642335731\H,-0.238528860
 8,-1.133350703,0.6230870661\H,-0.4737757746,-2.3575950021,-0.645035633
 3\H,-6.1430768339,-2.0397916757,0.6785375717\H,-7.5035250148,-1.322294
 8136,2.3869233893\H,-5.3602180905,1.3375613652,3.2041364377\\Version=E
 S64L-G16RevA.03\State=1-A\HF=-1042.7435133\RMSD=7.778e-09\RMSF=2.111e-
 06\Dipole=-0.6510401,-1.5458432,-0.8349881\Quadrupole=-10.9951416,5.98
 57985,5.009343,-3.7260607,3.4947203,-2.1526007\PG=C01 [X(C21H28O3)]\\@


 PENOTUS DIED A HUNDRED YEARS OLD WANTING BUT TWO...
 AND HE USED TO SAY BEFORE HE DIED, HAVING SPENT HIS
 WHOLE LIFE IN VAINLY SEARCHING AFTER THE PHILOSOPHER'S
 STONE, THAT IF HE HAD A MORTAL ENEMY HE DID NOT DARE
 TO ENCOUNTER OPENLY, HE WOULD ADVISE HIM ABOVE ALL
 THINGS TO GIVE HIMSELF UP TO THE STUDY AND PRACTICE
 OF ALCHEMY.  --  NICOLAS LEMERY, M.D.
 "A COURSE OF CHYMISTRY", WALTER KETTILBY, LONDON, 1686
 Job cpu time:       0 days  6 hours 55 minutes 30.9 seconds.
 Elapsed time:       0 days  0 hours 13 minutes 12.2 seconds.
 File lengths (MBytes):  RWF=    114 Int=      0 D2E=      0 Chk=     15 Scr=      1
 Normal termination of Gaussian 16 at Thu Dec 28 10:20:37 2023.
